LAMMPS data file via write_data, version 9 Nov 2016, timestep = 0

70 atoms
17 atom types
69 bonds
16 bond types
134 angles
29 angle types
195 dihedrals
38 dihedral types
0 impropers
4 improper types

4.4644078799999998e-01 3.1526440787999999e+01 xlo xhi
-2.0017962470000001e+00 2.4938203753000000e+01 ylo yhi
-2.0630608609999999e+00 5.2936939139000003e+01 zlo zhi
0.0000000000000000e+00 0.0000000000000000e+00 0.0000000000000000e+00 xy xz yz

Masses

1 26.9815
2 24.305
3 28.0855
4 15.9994
5 15.9994
6 15.9994
7 15.9994
8 1.00797
9 14.0067
10 12.0112
11 12.0112
12 1.00797
13 1.00797
14 12.0112
15 15.9994
16 14.0067
17 14.0067

Pair Coeffs # lj/cut/coul/long

1 1.3297e-06 4.27132
2 9.03e-07 5.26433
3 1.8402e-06 3.30196
4 0.155416 3.16552
5 0.228 2.85978
6 0.155416 3.16552
7 0.155416 3.16552
8 0 0
9 0.167 3.50123
10 0.039 3.87541
11 0.039 3.87541
12 0.038 2.44997
13 0 0
14 0.148 3.61705
15 0.228 2.85978
16 0.167 3.50123
17 0.167 3.50123

Bond Coeffs # harmonic

1 553.935 1
2 553.935 1
3 356.599 1.47
4 356.599 1.47
5 322.716 1.526
6 340.618 1.105
7 384 1.42
8 322.716 1.526
9 340.618 1.105
10 457.459 1.026
11 377.575 1.46
12 283.092 1.52
13 615.322 1.23
14 388 1.32
15 483.451 1.026
16 388 1.32

Angle Coeffs # harmonic

1 86.3 112
2 86.3 112
3 50 109.5
4 57.3 109.5
5 44.4 110
6 39.5 106.4
7 70 109.5
8 57 109.5
9 46.6 110.5
10 46.6 110.5
11 44.4 110
12 44.4 110
13 39.5 106.4
14 57.3 109.5
15 58.5 106
16 50 109.5
17 51.5 109.5
18 45 109.5
19 46.6 110.5
20 68 120
21 68 120
22 53.5 114.1
23 37.5 115
24 33 125
25 68 120
26 53.5 114.1
27 37.5 115
28 111 118
29 35 122

Dihedral Coeffs # harmonic

1 0.0889 1 3
2 0.0889 1 3
3 0.0889 1 3
4 0.0889 1 3
5 0.0889 1 3
6 0.1581 1 3
7 0.1581 1 3
8 0.1581 1 3
9 0.1581 1 3
10 1.3 1 3
11 1.3 1 3
12 0.1581 1 3
13 0.1581 1 3
14 0.1581 1 3
15 0.1581 1 3
16 0.1581 1 3
17 0.1581 1 3
18 0.1581 1 3
19 0.1581 1 3
20 0.1581 1 3
21 0 1 0
22 0 1 0
23 0 1 0
24 0 1 0
25 0.1581 1 3
26 0.1581 1 3
27 0 1 0
28 0 1 0
29 0 1 0
30 0 1 0
31 1.5 -1 2
32 1.5 -1 2
33 0 1 0
34 0 1 0
35 1.8 -1 2
36 3.8 -1 2
37 1.2 -1 2
38 3.2 -1 2

Improper Coeffs # cvff

1 10 -1 2
2 0.05 -1 2
3 10 -1 2
4 0.05 -1 2

Atoms # full

790 1 8 3.4999999999999998e-01 1.8267819228000000e+01 9.2990371080000003e+00 2.2381325412999995e+01 0 0 0
789 1 8 3.4999999999999998e-01 2.2609000303999998e+01 1.0857459316000000e+01 1.7840710206000001e+01 0 0 0
788 1 12 1.0000000000000001e-01 2.2564647395000001e+01 6.7661159680000011e+00 2.1406625045999998e+01 0 0 0
787 1 12 1.0000000000000001e-01 2.0783628187000001e+01 6.4092515120000009e+00 2.1595426097000001e+01 0 0 0
786 1 12 1.0000000000000001e-01 2.1751971259000001e+01 5.7031678749999966e+00 2.0421677642999999e+01 0 0 0
785 1 12 1.0000000000000001e-01 1.8108557886000000e+01 2.3271883311000000e+01 2.1438005445000002e+01 0 -1 0
784 1 12 1.0000000000000001e-01 1.9483488280000000e+01 2.2334659506000001e+01 2.1483919470999993e+01 0 -1 0
783 1 12 1.0000000000000001e-01 1.9398376076000002e+01 2.3905063353999999e+01 2.0762895081000000e+01 0 -1 0
782 1 12 1.0000000000000001e-01 1.7557071538999999e+01 2.2826617424999998e+01 1.9422474361999999e+01 0 -1 0
781 1 12 1.0000000000000001e-01 1.7876288701000000e+01 2.1479643268000000e+01 2.0086082149999999e+01 0 -1 0
780 1 12 1.0000000000000001e-01 1.8822489333999993e+01 2.2505242010000000e+01 1.7695960373999998e+01 0 -1 0
779 1 12 1.0000000000000001e-01 1.9548960375000000e+01 2.1256233438999999e+01 1.8431405923000000e+01 0 -1 0
778 1 12 1.0000000000000001e-01 2.1371330228000001e+01 2.2821684899000001e+01 1.8248154542000002e+01 0 -1 0
777 1 12 1.0000000000000001e-01 2.0967913733000000e+01 2.2898388137000001e+01 1.9769481751000001e+01 0 -1 0
776 1 12 1.0000000000000001e-01 1.9176571928999994e+01 2.4457661164999998e+01 1.8624142497000001e+01 0 -1 0
775 1 12 1.0000000000000001e-01 2.0170210613999998e+01 2.4466804091000000e+01 1.7373458185000000e+01 0 -1 0
774 1 12 1.0000000000000001e-01 2.1824853523999995e+01 -1.9384013400000000e+00 1.9341522487999999e+01 0 0 0
773 1 12 1.0000000000000001e-01 2.0448414379999999e+01 -1.6296705260000000e+00 2.0263242027999997e+01 0 0 0
772 1 12 1.0000000000000001e-01 1.9629695934000001e+01 -1.8542741300000021e-01 1.8349009514999999e+01 0 0 0
771 1 12 1.0000000000000001e-01 2.0932243759999999e+01 -5.0470981899999989e-01 1.7672053335000001e+01 0 0 0
770 1 12 1.0000000000000001e-01 2.2265220878999994e+01 7.2901333599999996e-01 1.9158599068000001e+01 0 0 0
769 1 12 1.0000000000000001e-01 2.1449843132000002e+01 3.4026714999999985e-02 2.0573101359999999e+01 0 0 0
768 1 12 1.0000000000000001e-01 2.1045835453999999e+01 2.1331295250000006e+00 2.0563906015000001e+01 0 0 0
767 1 12 1.0000000000000001e-01 1.9661637332000002e+01 1.4287793440000001e+00 2.0060582243999999e+01 0 0 0
766 1 12 1.0000000000000001e-01 2.0818254292999999e+01 1.9665750449999999e+00 1.7745689844000001e+01 0 0 0
765 1 12 1.0000000000000001e-01 2.1692824799000000e+01 2.8075139679999999e+00 1.8802585417999996e+01 0 0 0
764 1 12 1.0000000000000001e-01 1.8880011875000001e+01 2.6512655529999996e+00 1.8485363800999998e+01 0 0 0
763 1 12 1.0000000000000001e-01 1.9650076109000000e+01 4.0220240930000006e+00 1.7814020054000000e+01 0 0 0
762 1 12 1.0000000000000001e-01 2.0223489786999998e+01 4.7221896960000009e+00 2.0052080456999999e+01 0 0 0
761 1 12 1.0000000000000001e-01 1.9278711144999999e+01 3.5236793180000006e+00 2.0617173163999993e+01 0 0 0
760 1 12 1.0000000000000001e-01 1.7642932171000002e+01 4.5539022950000003e+00 2.0495324911000001e+01 0 0 0
759 1 12 1.0000000000000001e-01 1.7587379236000000e+01 4.5033194300000012e+00 1.8801279917999999e+01 0 0 0
758 1 12 1.0000000000000001e-01 1.7187165944000000e+01 6.3452308740000003e+00 2.0197747710000002e+01 0 0 0
757 1 12 1.0000000000000001e-01 1.7353036024999994e+01 6.6936306860000006e+00 1.8901864235000001e+01 0 0 0
756 1 12 1.0000000000000001e-01 1.8969301985000001e+01 7.1314224639999999e+00 2.1109850810000001e+01 0 0 0
755 1 12 1.0000000000000001e-01 1.8382014710999993e+01 8.1098419079999999e+00 1.9978979080999999e+01 0 0 0
754 1 12 1.0000000000000001e-01 2.0052556490000001e+01 7.8224929460000006e+00 1.8525843466000001e+01 0 0 0
753 1 12 1.0000000000000001e-01 2.0372026191000000e+01 6.2487281430000010e+00 1.9001416036999998e+01 0 0 0
752 1 12 1.0000000000000001e-01 2.0169613326999993e+01 8.2827656810000008e+00 2.2122618438000000e+01 0 0 0
751 1 12 1.0000000000000001e-01 2.0480405384000001e+01 9.9297641839999997e+00 2.2223051909999995e+01 0 0 0
750 1 12 1.0000000000000001e-01 2.1900539943999998e+01 9.6100842069999999e+00 2.0747692201000000e+01 0 0 0
749 1 12 1.0000000000000001e-01 2.0614276618000002e+01 9.6899898019999995e+00 1.9739516177999992e+01 0 0 0
748 1 12 1.0000000000000001e-01 2.3303421150999998e+01 8.6987895510000008e+00 1.7637124168000000e+01 0 0 0
747 1 12 1.0000000000000001e-01 2.1764237926000000e+01 8.5204555370000001e+00 1.7201936095000001e+01 0 0 0
746 1 12 1.0000000000000001e-01 2.3212996290000000e+01 8.3219397900000001e+00 1.9800933395000001e+01 0 0 0
745 1 12 1.0000000000000001e-01 2.2558947304000000e+01 7.1417141920000002e+00 1.8709336459999999e+01 0 0 0
744 1 5 -3.8000000000000000e-01 1.8639756719999994e+01 9.5022497690000005e+00 2.1534344173000001e+01 0 0 0
743 1 5 -3.8000000000000000e-01 2.1920830776999999e+01 1.0178437506000000e+01 1.8107184159999999e+01 0 0 0
742 1 11 1.2000000000000000e-01 2.1592842711999992e+01 6.6273489130000005e+00 2.0953462270999999e+01 0 0 0
741 1 11 -2.9999999999999999e-01 1.8905791420000000e+01 2.2983988874000001e+01 2.0910142240999999e+01 0 -1 0
740 1 10 -2.0000000000000001e-01 1.8408871138999999e+01 2.2309490837999999e+01 1.9762707437000000e+01 0 -1 0
739 1 10 -2.0000000000000001e-01 1.9305212713000000e+01 2.2222074490000001e+01 1.8650308467999999e+01 0 -1 0
738 1 10 -2.0000000000000001e-01 2.0567436654000002e+01 2.2994005720000001e+01 1.8812475042999999e+01 0 -1 0
737 1 10 -2.0000000000000001e-01 2.0159002258999994e+01 2.4300048057000001e+01 1.8406333727000000e+01 0 -1 0
736 1 10 -2.0000000000000001e-01 2.0782395439999998e+01 -1.7192109790000001e+00 1.9288054549999998e+01 0 0 0
735 1 10 -2.0000000000000001e-01 2.0603917603999999e+01 -4.9229330399999993e-01 1.8645001166000000e+01 0 0 0
734 1 10 -2.0000000000000001e-01 2.1359359913999992e+01 3.3592503699999998e-01 1.9557218775999996e+01 0 0 0
733 1 10 -2.0000000000000001e-01 2.0646848470999991e+01 1.5528782990000001e+00 1.9782472201000001e+01 0 0 0
732 1 10 -2.0000000000000001e-01 2.0720912158999997e+01 2.4493749849999999e+00 1.8697069927000001e+01 0 0 0
731 1 10 -2.0000000000000001e-01 1.9657202277000000e+01 3.3738898169999998e+00 1.8624188934999999e+01 0 0 0
730 1 10 -2.0000000000000001e-01 1.9367384088999994e+01 4.1649450970000004e+00 1.9790102734999994e+01 0 0 0
729 1 10 -2.0000000000000001e-01 1.8157719791000002e+01 4.8504119969999966e+00 1.9604419698000001e+01 0 0 0
728 1 10 -2.0000000000000001e-01 1.7984312374999998e+01 6.2397223420000003e+00 1.9588101531999996e+01 0 0 0
727 1 10 -2.0000000000000001e-01 1.8899471051999999e+01 7.2160149020000013e+00 2.0064498253000000e+01 0 0 0
726 1 10 2.2000000000000000e-01 2.0138414715000000e+01 7.2521979280000011e+00 1.9369106193000000e+01 0 0 0
725 1 10 -1.7000000000000001e-01 1.9989649414999999e+01 9.2175147380000002e+00 2.1646966503999998e+01 0 0 0
724 1 10 2.2000000000000000e-01 2.0970774333000001e+01 9.0839020769999994e+00 2.0562610020999994e+01 0 0 0
723 1 10 -1.7000000000000001e-01 2.2333563730999995e+01 8.8714635620000006e+00 1.8002182187999999e+01 0 0 0
722 1 10 2.2000000000000000e-01 2.2370817455000001e+01 8.0123108989999992e+00 1.9188573853000001e+01 0 0 0
721 1 9 -6.8000000000000005e-01 2.1231273811000001e+01 7.7634480209999985e+00 2.0076247885000001e+01 0 0 0

Velocities

790 0.0000000000000000e+00 0.0000000000000000e+00 0.0000000000000000e+00
789 0.0000000000000000e+00 0.0000000000000000e+00 0.0000000000000000e+00
788 0.0000000000000000e+00 0.0000000000000000e+00 0.0000000000000000e+00
787 0.0000000000000000e+00 0.0000000000000000e+00 0.0000000000000000e+00
786 0.0000000000000000e+00 0.0000000000000000e+00 0.0000000000000000e+00
785 0.0000000000000000e+00 0.0000000000000000e+00 0.0000000000000000e+00
784 0.0000000000000000e+00 0.0000000000000000e+00 0.0000000000000000e+00
783 0.0000000000000000e+00 0.0000000000000000e+00 0.0000000000000000e+00
782 0.0000000000000000e+00 0.0000000000000000e+00 0.0000000000000000e+00
781 0.0000000000000000e+00 0.0000000000000000e+00 0.0000000000000000e+00
780 0.0000000000000000e+00 0.0000000000000000e+00 0.0000000000000000e+00
779 0.0000000000000000e+00 0.0000000000000000e+00 0.0000000000000000e+00
778 0.0000000000000000e+00 0.0000000000000000e+00 0.0000000000000000e+00
777 0.0000000000000000e+00 0.0000000000000000e+00 0.0000000000000000e+00
776 0.0000000000000000e+00 0.0000000000000000e+00 0.0000000000000000e+00
775 0.0000000000000000e+00 0.0000000000000000e+00 0.0000000000000000e+00
774 0.0000000000000000e+00 0.0000000000000000e+00 0.0000000000000000e+00
773 0.0000000000000000e+00 0.0000000000000000e+00 0.0000000000000000e+00
772 0.0000000000000000e+00 0.0000000000000000e+00 0.0000000000000000e+00
771 0.0000000000000000e+00 0.0000000000000000e+00 0.0000000000000000e+00
770 0.0000000000000000e+00 0.0000000000000000e+00 0.0000000000000000e+00
769 0.0000000000000000e+00 0.0000000000000000e+00 0.0000000000000000e+00
768 0.0000000000000000e+00 0.0000000000000000e+00 0.0000000000000000e+00
767 0.0000000000000000e+00 0.0000000000000000e+00 0.0000000000000000e+00
766 0.0000000000000000e+00 0.0000000000000000e+00 0.0000000000000000e+00
765 0.0000000000000000e+00 0.0000000000000000e+00 0.0000000000000000e+00
764 0.0000000000000000e+00 0.0000000000000000e+00 0.0000000000000000e+00
763 0.0000000000000000e+00 0.0000000000000000e+00 0.0000000000000000e+00
762 0.0000000000000000e+00 0.0000000000000000e+00 0.0000000000000000e+00
761 0.0000000000000000e+00 0.0000000000000000e+00 0.0000000000000000e+00
760 0.0000000000000000e+00 0.0000000000000000e+00 0.0000000000000000e+00
759 0.0000000000000000e+00 0.0000000000000000e+00 0.0000000000000000e+00
758 0.0000000000000000e+00 0.0000000000000000e+00 0.0000000000000000e+00
757 0.0000000000000000e+00 0.0000000000000000e+00 0.0000000000000000e+00
756 0.0000000000000000e+00 0.0000000000000000e+00 0.0000000000000000e+00
755 0.0000000000000000e+00 0.0000000000000000e+00 0.0000000000000000e+00
754 0.0000000000000000e+00 0.0000000000000000e+00 0.0000000000000000e+00
753 0.0000000000000000e+00 0.0000000000000000e+00 0.0000000000000000e+00
752 0.0000000000000000e+00 0.0000000000000000e+00 0.0000000000000000e+00
751 0.0000000000000000e+00 0.0000000000000000e+00 0.0000000000000000e+00
750 0.0000000000000000e+00 0.0000000000000000e+00 0.0000000000000000e+00
749 0.0000000000000000e+00 0.0000000000000000e+00 0.0000000000000000e+00
748 0.0000000000000000e+00 0.0000000000000000e+00 0.0000000000000000e+00
747 0.0000000000000000e+00 0.0000000000000000e+00 0.0000000000000000e+00
746 0.0000000000000000e+00 0.0000000000000000e+00 0.0000000000000000e+00
745 0.0000000000000000e+00 0.0000000000000000e+00 0.0000000000000000e+00
744 0.0000000000000000e+00 0.0000000000000000e+00 0.0000000000000000e+00
743 0.0000000000000000e+00 0.0000000000000000e+00 0.0000000000000000e+00
742 0.0000000000000000e+00 0.0000000000000000e+00 0.0000000000000000e+00
741 0.0000000000000000e+00 0.0000000000000000e+00 0.0000000000000000e+00
740 0.0000000000000000e+00 0.0000000000000000e+00 0.0000000000000000e+00
739 0.0000000000000000e+00 0.0000000000000000e+00 0.0000000000000000e+00
738 0.0000000000000000e+00 0.0000000000000000e+00 0.0000000000000000e+00
737 0.0000000000000000e+00 0.0000000000000000e+00 0.0000000000000000e+00
736 0.0000000000000000e+00 0.0000000000000000e+00 0.0000000000000000e+00
735 0.0000000000000000e+00 0.0000000000000000e+00 0.0000000000000000e+00
734 0.0000000000000000e+00 0.0000000000000000e+00 0.0000000000000000e+00
733 0.0000000000000000e+00 0.0000000000000000e+00 0.0000000000000000e+00
732 0.0000000000000000e+00 0.0000000000000000e+00 0.0000000000000000e+00
731 0.0000000000000000e+00 0.0000000000000000e+00 0.0000000000000000e+00
730 0.0000000000000000e+00 0.0000000000000000e+00 0.0000000000000000e+00
729 0.0000000000000000e+00 0.0000000000000000e+00 0.0000000000000000e+00
728 0.0000000000000000e+00 0.0000000000000000e+00 0.0000000000000000e+00
727 0.0000000000000000e+00 0.0000000000000000e+00 0.0000000000000000e+00
726 0.0000000000000000e+00 0.0000000000000000e+00 0.0000000000000000e+00
725 0.0000000000000000e+00 0.0000000000000000e+00 0.0000000000000000e+00
724 0.0000000000000000e+00 0.0000000000000000e+00 0.0000000000000000e+00
723 0.0000000000000000e+00 0.0000000000000000e+00 0.0000000000000000e+00
722 0.0000000000000000e+00 0.0000000000000000e+00 0.0000000000000000e+00
721 0.0000000000000000e+00 0.0000000000000000e+00 0.0000000000000000e+00

Bonds

1 7 744 725
2 1 744 790
3 7 743 723
4 1 743 789
5 9 742 786
6 9 742 787
7 9 742 788
8 9 741 783
9 9 741 784
10 9 741 785
11 8 740 741
12 6 740 781
13 6 740 782
14 5 739 740
15 6 739 779
16 6 739 780
17 5 738 739
18 6 738 777
19 6 738 778
20 5 737 738
21 6 737 775
22 6 737 776
23 5 736 737
24 6 736 773
25 6 736 774
26 5 735 736
27 6 735 771
28 6 735 772
29 5 734 735
30 6 734 769
31 6 734 770
32 5 733 734
33 6 733 767
34 6 733 768
35 5 732 733
36 6 732 765
37 6 732 766
38 5 731 732
39 6 731 763
40 6 731 764
41 5 730 731
42 6 730 761
43 6 730 762
44 5 729 730
45 6 729 759
46 6 729 760
47 5 728 729
48 6 728 757
49 6 728 758
50 5 727 728
51 6 727 755
52 6 727 756
53 5 726 727
54 6 726 753
55 6 726 754
56 6 725 751
57 6 725 752
58 5 724 725
59 6 724 749
60 6 724 750
61 6 723 747
62 6 723 748
63 5 722 723
64 6 722 745
65 6 722 746
66 3 721 722
67 3 721 724
68 3 721 726
69 4 721 742

Angles

1 15 790 744 725
2 15 789 743 723
3 14 721 742 786
4 14 721 742 787
5 14 721 742 788
6 13 786 742 787
7 13 786 742 788
8 13 787 742 788
9 12 740 741 783
10 12 740 741 784
11 12 740 741 785
12 13 783 741 784
13 13 783 741 785
14 13 784 741 785
15 10 739 740 741
16 5 739 740 781
17 5 739 740 782
18 11 741 740 781
19 11 741 740 782
20 6 781 740 782
21 9 738 739 740
22 5 738 739 779
23 5 738 739 780
24 5 740 739 779
25 5 740 739 780
26 6 779 739 780
27 9 737 738 739
28 5 737 738 777
29 5 737 738 778
30 5 739 738 777
31 5 739 738 778
32 6 777 738 778
33 9 736 737 738
34 5 736 737 775
35 5 736 737 776
36 5 738 737 775
37 5 738 737 776
38 6 775 737 776
39 9 735 736 737
40 5 735 736 773
41 5 735 736 774
42 5 737 736 773
43 5 737 736 774
44 6 773 736 774
45 9 734 735 736
46 5 734 735 771
47 5 734 735 772
48 5 736 735 771
49 5 736 735 772
50 6 771 735 772
51 9 733 734 735
52 5 733 734 769
53 5 733 734 770
54 5 735 734 769
55 5 735 734 770
56 6 769 734 770
57 9 732 733 734
58 5 732 733 767
59 5 732 733 768
60 5 734 733 767
61 5 734 733 768
62 6 767 733 768
63 9 731 732 733
64 5 731 732 765
65 5 731 732 766
66 5 733 732 765
67 5 733 732 766
68 6 765 732 766
69 9 730 731 732
70 5 730 731 763
71 5 730 731 764
72 5 732 731 763
73 5 732 731 764
74 6 763 731 764
75 9 729 730 731
76 5 729 730 761
77 5 729 730 762
78 5 731 730 761
79 5 731 730 762
80 6 761 730 762
81 9 728 729 730
82 5 728 729 759
83 5 728 729 760
84 5 730 729 759
85 5 730 729 760
86 6 759 729 760
87 9 727 728 729
88 5 727 728 757
89 5 727 728 758
90 5 729 728 757
91 5 729 728 758
92 6 757 728 758
93 9 726 727 728
94 5 726 727 755
95 5 726 727 756
96 5 728 727 755
97 5 728 727 756
98 6 755 727 756
99 3 721 726 727
100 4 721 726 753
101 4 721 726 754
102 5 727 726 753
103 5 727 726 754
104 6 753 726 754
105 7 744 725 724
106 5 724 725 751
107 5 724 725 752
108 8 744 725 751
109 8 744 725 752
110 6 751 725 752
111 3 721 724 725
112 4 721 724 749
113 4 721 724 750
114 5 725 724 749
115 5 725 724 750
116 6 749 724 750
117 7 743 723 722
118 5 722 723 747
119 5 722 723 748
120 8 743 723 747
121 8 743 723 748
122 6 747 723 748
123 3 721 722 723
124 4 721 722 745
125 4 721 722 746
126 5 723 722 745
127 5 723 722 746
128 6 745 722 746
129 1 722 721 724
130 1 722 721 726
131 2 722 721 742
132 1 724 721 726
133 2 724 721 742
134 2 726 721 742

Dihedrals

1 10 790 744 725 724
2 11 790 744 725 751
3 11 790 744 725 752
4 10 789 743 723 722
5 11 789 743 723 747
6 11 789 743 723 748
7 16 741 740 739 779
8 16 741 740 739 780
9 17 739 740 741 783
10 17 739 740 741 784
11 17 739 740 741 785
12 18 781 740 741 783
13 18 781 740 741 784
14 18 781 740 741 785
15 18 782 740 741 783
16 18 782 740 741 784
17 18 782 740 741 785
18 13 740 739 738 777
19 13 740 739 738 778
20 15 738 739 740 741
21 13 738 739 740 781
22 13 738 739 740 782
23 9 779 739 740 781
24 9 779 739 740 782
25 9 780 739 740 781
26 9 780 739 740 782
27 13 739 738 737 775
28 13 739 738 737 776
29 14 737 738 739 740
30 13 737 738 739 779
31 13 737 738 739 780
32 9 777 738 739 779
33 9 777 738 739 780
34 9 778 738 739 779
35 9 778 738 739 780
36 13 738 737 736 773
37 13 738 737 736 774
38 14 736 737 738 739
39 13 736 737 738 777
40 13 736 737 738 778
41 9 775 737 738 777
42 9 775 737 738 778
43 9 776 737 738 777
44 9 776 737 738 778
45 13 737 736 735 771
46 13 737 736 735 772
47 14 735 736 737 738
48 13 735 736 737 775
49 13 735 736 737 776
50 9 773 736 737 775
51 9 773 736 737 776
52 9 774 736 737 775
53 9 774 736 737 776
54 13 736 735 734 769
55 13 736 735 734 770
56 14 734 735 736 737
57 13 734 735 736 773
58 13 734 735 736 774
59 9 771 735 736 773
60 9 771 735 736 774
61 9 772 735 736 773
62 9 772 735 736 774
63 13 735 734 733 767
64 13 735 734 733 768
65 14 733 734 735 736
66 13 733 734 735 771
67 13 733 734 735 772
68 9 769 734 735 771
69 9 769 734 735 772
70 9 770 734 735 771
71 9 770 734 735 772
72 13 734 733 732 765
73 13 734 733 732 766
74 14 732 733 734 735
75 13 732 733 734 769
76 13 732 733 734 770
77 9 767 733 734 769
78 9 767 733 734 770
79 9 768 733 734 769
80 9 768 733 734 770
81 13 733 732 731 763
82 13 733 732 731 764
83 14 731 732 733 734
84 13 731 732 733 767
85 13 731 732 733 768
86 9 765 732 733 767
87 9 765 732 733 768
88 9 766 732 733 767
89 9 766 732 733 768
90 13 732 731 730 761
91 13 732 731 730 762
92 14 730 731 732 733
93 13 730 731 732 765
94 13 730 731 732 766
95 9 763 731 732 765
96 9 763 731 732 766
97 9 764 731 732 765
98 9 764 731 732 766
99 13 731 730 729 759
100 13 731 730 729 760
101 14 729 730 731 732
102 13 729 730 731 763
103 13 729 730 731 764
104 9 761 730 731 763
105 9 761 730 731 764
106 9 762 730 731 763
107 9 762 730 731 764
108 13 730 729 728 757
109 13 730 729 728 758
110 14 728 729 730 731
111 13 728 729 730 761
112 13 728 729 730 762
113 9 759 729 730 761
114 9 759 729 730 762
115 9 760 729 730 761
116 9 760 729 730 762
117 13 729 728 727 755
118 13 729 728 727 756
119 14 727 728 729 730
120 13 727 728 729 759
121 13 727 728 729 760
122 9 757 728 729 759
123 9 757 728 729 760
124 9 758 728 729 759
125 9 758 728 729 760
126 13 728 727 726 753
127 13 728 727 726 754
128 14 726 727 728 729
129 13 726 727 728 757
130 13 726 727 728 758
131 9 755 727 728 757
132 9 755 727 728 758
133 9 756 727 728 757
134 9 756 727 728 758
135 12 721 726 727 728
136 7 721 726 727 755
137 7 721 726 727 756
138 9 753 726 727 755
139 9 753 726 727 756
140 9 754 726 727 755
141 9 754 726 727 756
142 6 744 725 724 721
143 8 744 725 724 749
144 8 744 725 724 750
145 7 721 724 725 751
146 7 721 724 725 752
147 9 749 724 725 751
148 9 749 724 725 752
149 9 750 724 725 751
150 9 750 724 725 752
151 6 743 723 722 721
152 8 743 723 722 745
153 8 743 723 722 746
154 7 721 722 723 747
155 7 721 722 723 748
156 9 745 722 723 747
157 9 745 722 723 748
158 9 746 722 723 747
159 9 746 722 723 748
160 1 724 721 722 723
161 2 724 721 722 745
162 2 724 721 722 746
163 1 726 721 722 723
164 2 726 721 722 745
165 2 726 721 722 746
166 3 742 721 722 723
167 4 742 721 722 745
168 4 742 721 722 746
169 1 722 721 724 725
170 2 722 721 724 749
171 2 722 721 724 750
172 1 726 721 724 725
173 2 726 721 724 749
174 2 726 721 724 750
175 3 742 721 724 725
176 4 742 721 724 749
177 4 742 721 724 750
178 1 722 721 726 727
179 2 722 721 726 753
180 2 722 721 726 754
181 1 724 721 726 727
182 2 724 721 726 753
183 2 724 721 726 754
184 3 742 721 726 727
185 4 742 721 726 753
186 4 742 721 726 754
187 5 722 721 742 786
188 5 722 721 742 787
189 5 722 721 742 788
190 5 724 721 742 786
191 5 724 721 742 787
192 5 724 721 742 788
193 5 726 721 742 786
194 5 726 721 742 787
195 5 726 721 742 788
