A modified lammps file based on mix.data

192 atoms
8 atom types
191 bonds
11 bond types
360 angles
21 angle types
514 dihedrals
27 dihedral types
20 impropers
4 improper types

-2.472877519 25.006000329 xlo xhi
-17.158272434 17.505953789 ylo yhi
17.703376344 42.190801075 zlo zhi
0.0 0.0 0.0 xy xz yz

Masses

1 12.01115 # c2
2 12.01115 # c3
3 1.00797 # h
4 1.00797 # hn
5 12.01115 # c'
6 15.9994 # o'
7 14.0067 # n2
8 14.0067 # n

Pair Coeffs

1 0.0389999952 3.8754094636 # c2
2 0.0389999952 3.8754094636 # c3
3 0.0380000011 2.449971454 # h
4 0.0 0.0 # hn
5 0.1479999981 3.6170487995 # c'
6 0.2280000124 2.8597848722 # o'
7 0.1669999743 3.5012320066 # n2
8 0.1669999743 3.5012320066 # n

Bond Coeffs

1 322.7158 1.526 # c2-c2
2 340.6175 1.105 # c2-h
3 322.7158 1.526 # c2-c3
4 340.6175 1.105 # c3-h
5 457.4592 1.026 # hn-n2
6 377.5752 1.46 # c2-n
7 283.0924 1.52 # c2-c'
8 615.322 1.23 # c'-o'
9 388.0 1.32 # c'-n2
10 483.4512 1.026 # hn-n
11 388.0 1.32 # c'-n

Angle Coeffs

1 44.4 110.0 # c2-c2-h
2 39.5 106.4 # h-c2-h
3 46.6 110.5 # c2-c2-c2
4 46.6 110.5 # c2-c2-c3
5 44.4 110.0 # c3-c2-h
6 44.4 110.0 # c2-c3-h
7 39.5 106.4 # h-c3-h
8 50.0 109.5 # c2-c2-n
9 51.5 109.5 # h-c2-n
10 45.0 109.5 # h-c2-c'
11 46.6 110.5 # c2-c2-c'
12 68.0 120.0 # o'-c'-n2
13 68.0 120.0 # c2-c'-o'
14 53.5 114.1 # c2-c'-n2
15 37.5 115.0 # hn-n2-c'
16 33.0 125.0 # hn-n2-hn
17 68.0 120.0 # o'-c'-n
18 53.5 114.1 # c2-c'-n
19 37.5 115.0 # hn-n-c'
20 111.0 118.0 # c2-n-c'
21 35.0 122.0 # c2-n-hn

Dihedral Coeffs

1 0.1581 1 3 # h-c2-c2-h
2 0.1581 1 3 # c2-c2-c2-h
3 0.1581 1 3 # c2-c2-c2-c2
4 0.1581 1 3 # c2-c2-c2-c3
5 0.1581 1 3 # c3-c2-c2-h
6 0.1581 1 3 # c2-c2-c3-h
7 0.1581 1 3 # h-c2-c3-h
8 0.1581 1 3 # c2-c2-c2-n
9 0.1581 1 3 # h-c2-c2-n
10 0.0 1 0 # c2-c2-n-c'
11 0.0 1 0 # c2-c2-n-hn
12 0.0 1 0 # h-c2-n-c'
13 0.0 1 0 # h-c2-n-hn
14 0.1581 1 3 # c2-c2-c2-c'
15 0.1581 1 3 # h-c2-c2-c'
16 0.0 1 0 # h-c2-c'-o'
17 0.0 1 0 # h-c2-c'-n2
18 0.0 1 0 # c2-c2-c'-o'
19 0.0 1 0 # c2-c2-c'-n2
20 1.5 -1 2 # o'-c'-n2-hn
21 1.5 -1 2 # c2-c'-n2-hn
22 0.0 1 0 # h-c2-c'-n
23 0.0 1 0 # c2-c2-c'-n
24 1.8 -1 2 # o'-c'-n-hn
25 3.8 -1 2 # o'-c'-n-c2
26 1.2 -1 2 # c2-c'-n-hn
27 3.2 -1 2 # c2-c'-n-c2

Improper Coeffs

1 10.0 -1 2 # c2-c'-n2-o'
2 0.05 -1 2 # hn-n2-c'-hn
3 10.0 -1 2 # c2-c'-n-o'
4 0.05 -1 2 # c'-n-c2-hn

Atoms

1 2 4 0.28 3.285729102 -10.463172874000001 32.888139902 0 0 0 # hn
2 2 1 0.02 6.984181693 -7.9552615870000025 34.215035032 0 0 0 # c2
3 2 3 0.1 7.447966064 -8.32925724 33.299826664 0 0 0 # h
4 2 3 0.1 6.13335339 -7.502950791 33.903767898 0 0 0 # h
5 2 1 -0.2 6.822416527 -9.116405613000001 35.099136971 0 0 0 # c2
6 2 3 0.1 7.723250049 -9.553167228 35.258766922 0 0 0 # h
7 2 3 0.1 6.609779048 -8.868228615 36.096013555 0 0 0 # h
8 2 1 -0.2 5.857558874 -10.031863217000001 34.538955619 0 0 0 # c2
9 2 3 0.1 5.662165326 -10.899785963000003 35.238979947 0 0 0 # h
10 2 3 0.1 6.132644672 -10.484289479000001 33.643714256 0 0 0 # h
11 2 1 -0.2 4.615492538 -9.247688551 34.565478067 0 0 0 # c2
12 2 3 0.1 4.574015264 -8.259018216000001 34.901207615 0 0 0 # h
13 2 3 0.1 4.591479311 -8.948927306000002 33.599708919 0 0 0 # h
14 2 1 -0.2 3.443983594 -9.969825481 34.988322657 0 0 0 # c2
15 2 3 0.1 3.542874934 -10.030656542000003 36.02160245 0 0 0 # h
16 2 3 0.1 2.527122481 -9.490043413000002 34.850485241 0 0 0 # h
17 2 5 0.38 3.350793949 -11.282444925000002 34.48924043 0 0 0 # c'
18 2 6 -0.38 3.637642732 -12.140842020000001 35.235428084 0 0 0 # o'
19 2 7 -0.56 3.354425543 -11.415645977 33.257683783 0 0 0 # n2
20 2 4 0.28 4.085213829 -12.158272434 33.028328597 0 0 0 # hn
21 3 4 0.28 7.335088167 -5.999998256000001 34.94795539 0 0 0 # hn
22 3 1 0.02 8.619247232 -2.1842007270000003 35.28438285 0 0 0 # c2
23 3 3 0.1 9.201399499 -2.1146235339999997 34.413989914 0 0 0 # h
24 3 3 0.1 7.886586943 -2.666596361 34.821323126 0 0 0 # h
25 3 1 -0.2 9.577585485 -2.765644191 36.113979864 0 0 0 # c2
26 3 3 0.1 10.328506218 -2.0618847369999997 36.416907636 0 0 0 # h
27 3 3 0.1 9.217014093 -3.097993917 37.022125187 0 0 0 # h
28 3 1 -0.2 10.356102544 -3.786540629000001 35.65387681 0 0 0 # c2
29 3 3 0.1 11.080968371 -3.928073020000003 36.418888564 0 0 0 # h
30 3 3 0.1 10.797563506 -3.3761198540000024 34.746753025 0 0 0 # h
31 3 1 -0.2 9.845050929 -5.059758977000001 35.164102338 0 0 0 # c2
32 3 3 0.1 10.70140786 -5.4718651099999995 34.605497344 0 0 0 # h
33 3 3 0.1 9.07550325 -4.844580760000003 34.387982431 0 0 0 # h
34 3 1 -0.2 9.582100117 -6.181508756000003 36.05298609 0 0 0 # c2
35 3 3 0.1 10.40414411 -6.833171073000003 36.323507423 0 0 0 # h
36 3 3 0.1 9.262899463 -6.017640482000001 37.03336583 0 0 0 # h
37 3 5 0.38 8.8754954 -7.164590135000001 35.302678473 0 0 0 # c'
38 3 6 -0.38 9.419055409 -8.210370620000003 35.097123552 0 0 0 # o'
39 3 8 -0.5 7.717285291 -6.934066697000002 34.825021638 0 0 0 # n
40 4 4 0.28 9.185323817 -0.486913671 36.462083787 0 0 0 # hn
41 4 1 0.02 7.760346906 -0.777398139 30.900781212 0 0 0 # c2
42 4 3 0.1 7.075868307 0.030308554 31.010009152 0 0 0 # h
43 4 3 0.1 8.718243871 -0.304583748 31.031737193 0 0 0 # h
44 4 1 -0.2 7.568332269 -1.650258501 32.028548171 0 0 0 # c2
45 4 3 0.1 6.749444727 -2.3205262120000008 31.911723053 0 0 0 # h
46 4 3 0.1 8.192344503 -2.403377038000002 32.421691256 0 0 0 # h
47 4 1 -0.2 7.42642736 -0.738060035 33.112926685 0 0 0 # c2
48 4 3 0.1 7.338468784 0.305889223 32.903922347 0 0 0 # h
49 4 3 0.1 8.429337101 -0.70029292 33.419825387 0 0 0 # h
50 4 1 -0.2 6.389227805 -0.930102436 34.064531587 0 0 0 # c2
51 4 3 0.1 5.530225289 -0.521476622 33.658711169 0 0 0 # h
52 4 3 0.1 5.936866327 -1.846442803 34.298733939 0 0 0 # h
53 4 1 -0.2 6.39011426 -0.10633244 35.18630699 0 0 0 # c2
54 4 3 0.1 6.75934471 0.798762252 34.874692574 0 0 0 # h
55 4 3 0.1 5.352586705 -0.092055819 35.501729656 0 0 0 # h
56 4 5 0.38 7.351817415 -0.370570318 36.168632445 0 0 0 # c'
57 4 6 -0.38 7.160910662 0.191682653 37.190801075 0 0 0 # o'
58 4 8 -0.5 8.375713817 -1.045575834 36.053432293 0 0 0 # n
59 5 4 0.28 7.649465474 -2.5961281310000004 29.695795805 0 0 0 # hn
60 5 1 0.02 9.280829582 1.042935801 26.250901685 0 0 0 # c2
61 5 3 0.1 8.334654286 0.842729354 25.894917977 0 0 0 # h
62 5 3 0.1 9.200516944 2.108751265 26.4794006 0 0 0 # h
63 5 1 -0.2 9.726882818 0.379270236 27.429639685 0 0 0 # c2
64 5 3 0.1 9.586456875 -0.648969654 27.463716821 0 0 0 # h
65 5 3 0.1 10.706611813 0.17396553 27.500645188 0 0 0 # h
66 5 1 -0.2 9.345150553 1.131547403 28.616457905 0 0 0 # c2
67 5 3 0.1 9.69851901 2.121392166 28.462309156 0 0 0 # h
68 5 3 0.1 9.75698245 0.807941448 29.492336359 0 0 0 # h
69 5 1 -0.2 7.994447098 1.314278633 28.983324122 0 0 0 # c2
70 5 3 0.1 7.979806767 1.380537182 30.035110136 0 0 0 # h
71 5 3 0.1 7.688040757 2.271832658 28.752774584 0 0 0 # h
72 5 1 -0.2 7.17168987 0.327664348 28.38760369 0 0 0 # c2
73 5 3 0.1 6.21382147 0.291983534 28.651034228 0 0 0 # h
74 5 3 0.1 7.142794962 0.57501519 27.339553792 0 0 0 # h
75 5 5 0.38 7.480084286 -1.02360821 28.589688731 0 0 0 # c'
76 5 6 -0.38 7.624752933 -1.602349251 27.576639409 0 0 0 # o'
77 5 8 -0.5 7.599259265 -1.554419395 29.774800053 0 0 0 # n
78 6 4 0.28 11.046355768 0.284711562 25.398034472 0 0 0 # hn
79 6 1 0.02 13.814453625 5.006785858 24.517074546 0 0 0 # c2
80 6 3 0.1 13.825474106 5.484871907 23.586335318 0 0 0 # h
81 6 3 0.1 12.936483755 5.295998926 24.960904431 0 0 0 # h
82 6 1 -0.2 13.988039981 3.610277289 24.374303964 0 0 0 # c2
83 6 3 0.1 14.113152999 2.976863062 25.261621834 0 0 0 # h
84 6 3 0.1 14.652927515 3.425064961 23.61065697 0 0 0 # h
85 6 1 -0.2 12.831449673 3.105813048 23.817007801 0 0 0 # c2
86 6 3 0.1 12.84375702 3.425210554 22.805966954 0 0 0 # h
87 6 3 0.1 11.884322449 3.495563873 24.240302625 0 0 0 # h
88 6 1 -0.2 12.775614413 1.696673242 23.654084103 0 0 0 # c2
89 6 3 0.1 13.10763361 1.382099262 22.703376344 0 0 0 # h
90 6 3 0.1 13.349058795 1.078142985 24.314707335 0 0 0 # h
91 6 1 -0.2 11.391273281 1.366102036 23.509023357 0 0 0 # c2
92 6 3 0.1 11.066280112 2.156451724 22.83103342 0 0 0 # h
93 6 3 0.1 11.3993675 0.444245272 22.9512584 0 0 0 # h
94 6 5 0.38 10.368805362 1.733542183 24.418886525 0 0 0 # c'
95 6 6 -0.38 9.427912505 2.409738116 24.186121159 0 0 0 # o'
96 6 8 -0.5 10.162873555 0.840987222 25.254896133 0 0 0 # n
97 7 4 0.28 15.151840427 4.679316547 26.113669618 0 0 0 # hn
98 7 1 0.02 18.168160273 8.540352299 28.865852941 0 0 0 # c2
99 7 3 0.1 17.104644134 8.489747847 28.702474226 0 0 0 # h
100 7 3 0.1 18.095564059 7.726595578 29.529824809 0 0 0 # h
101 7 1 -0.2 19.070095572 8.125107637 27.775673433 0 0 0 # c2
102 7 3 0.1 19.364411669 8.851895884 27.063801192 0 0 0 # h
103 7 3 0.1 20.006000329 7.827572073 28.052529047 0 0 0 # h
104 7 1 -0.2 18.588319958 6.944354903 27.163624916 0 0 0 # c2
105 7 3 0.1 18.499594437 6.215093932 27.995544526 0 0 0 # h
106 7 3 0.1 19.299541193 6.72060571 26.417091065 0 0 0 # h
107 7 1 -0.2 17.30296221 7.24020294 26.539335092 0 0 0 # c2
108 7 3 0.1 16.514141503 7.742156781 27.092075277 0 0 0 # h
109 7 3 0.1 17.511165616 7.993848974 25.869248915 0 0 0 # h
110 7 1 -0.2 16.779132142 6.096487563 25.911558244 0 0 0 # c2
111 7 3 0.1 17.437104715 5.697868154 25.196080455 0 0 0 # h
112 7 3 0.1 16.79389803 5.330092405 26.599889719 0 0 0 # h
113 7 5 0.38 15.513717233 6.325981815 25.38744953 0 0 0 # c'
114 7 6 -0.38 15.200973186 7.29290956 24.779699825 0 0 0 # o'
115 7 8 -0.5 14.855504127 5.294394844 25.362296022 0 0 0 # n
116 8 4 0.28 19.250326017 10.058279991 29.974294729 0 0 0 # hn
117 8 1 0.02 14.533366987 9.48178862 26.903583874 0 0 0 # c2
118 8 3 0.1 15.124093313 9.436311235 27.759782963 0 0 0 # h
119 8 3 0.1 13.735117741 10.014454004 27.283728595 0 0 0 # h
120 8 1 -0.2 15.276415161 9.858933092 25.745300155 0 0 0 # c2
121 8 3 0.1 15.999174585 9.155643735 25.757503589 0 0 0 # h
122 8 3 0.1 15.102482398 9.521957721 24.708629016 0 0 0 # h
123 8 1 -0.2 15.875100566 11.159253656 25.753704339 0 0 0 # c2
124 8 3 0.1 15.05287836 11.770958342 25.655099757 0 0 0 # h
125 8 3 0.1 16.310886411 11.189448122 24.796654924 0 0 0 # h
126 8 1 -0.2 16.828653745 11.667221531 26.706177968 0 0 0 # c2
127 8 3 0.1 17.338629441 12.505953789 26.422435289 0 0 0 # h
128 8 3 0.1 16.471887043 12.32373812 27.389173982 0 0 0 # h
129 8 1 -0.2 17.601165363 10.662917993 27.367761811 0 0 0 # c2
130 8 3 0.1 16.947771333 9.887280433 27.446309502 0 0 0 # h
131 8 3 0.1 18.134701423 10.084361129 26.741755292 0 0 0 # h
132 8 5 0.38 18.378117433 10.882975634 28.559789784 0 0 0 # c'
133 8 6 -0.38 18.931641741 11.931755937 28.815963378 0 0 0 # o'
134 8 8 -0.5 18.596466533 9.828015266 29.245500846 0 0 0 # n
135 9 4 0.28 14.338989491 7.640096674 25.918966576 0 0 0 # hn
136 9 1 0.02 11.97803229 2.521703574 26.888032307 0 0 0 # c2
137 9 3 0.1 10.940099989 2.52744432 27.090775778 0 0 0 # h
138 9 3 0.1 12.048469103 2.39478293 25.854376101 0 0 0 # h
139 9 1 -0.2 12.600443342 3.713682217 27.28495283 0 0 0 # c2
140 9 3 0.1 12.699702661 3.88030378 28.303230904 0 0 0 # h
141 9 3 0.1 13.471030498 3.915093356 26.805938931 0 0 0 # h
142 9 1 -0.2 11.615446678 4.698172264 26.838909341 0 0 0 # c2
143 9 3 0.1 10.725696288 4.442013212 27.277843537 0 0 0 # h
144 9 3 0.1 11.445202091 4.573511359 25.80780543 0 0 0 # h
145 9 1 -0.2 11.704162435 6.148477387 27.065767395 0 0 0 # c2
146 9 3 0.1 11.492730153 6.640752214 26.146118746 0 0 0 # h
147 9 3 0.1 10.960082341 6.338845855 27.857405661 0 0 0 # h
148 9 1 -0.2 12.927790028 6.427105493 27.628340282 0 0 0 # c2
149 9 3 0.1 13.001923761 5.996166811 28.59452109 0 0 0 # h
150 9 3 0.1 13.669686284 5.85092388 27.16043913 0 0 0 # h
151 9 5 0.38 13.447811942 7.680101741 27.715219997 0 0 0 # c'
152 9 6 -0.38 13.696151002 8.125410331 28.772731365 0 0 0 # o'
153 9 8 -0.5 13.98409487 8.215864294 26.71837621 0 0 0 # n
154 10 4 0.28 13.1684974 1.743840387 28.503711815 0 0 0 # hn
155 10 1 0.02 15.778247535 3.813308227 27.91555461 0 0 0 # c2
156 10 3 0.1 16.817299692 3.987697113 28.031868145 0 0 0 # h
157 10 3 0.1 15.52225346 3.905240186 26.890226775 0 0 0 # h
158 10 1 -0.2 15.503368347 2.419695726 28.235560728 0 0 0 # c2
159 10 3 0.1 15.904190143 2.067445971 29.140454644 0 0 0 # h
160 10 3 0.1 14.465418901 2.413802045 28.359070048 0 0 0 # h
161 10 1 -0.2 15.550653791 1.495782454 27.116079137 0 0 0 # c2
162 10 3 0.1 16.391304314 1.603659185 26.631563501 0 0 0 # h
163 10 3 0.1 14.956990138 1.707272423 26.250333258 0 0 0 # h
164 10 1 -0.2 15.273348122 0.179863463 27.585534258 0 0 0 # c2
165 10 3 0.1 15.543409992 -0.534536737 26.861009076 0 0 0 # h
166 10 3 0.1 15.654929614 -0.166136921 28.497954304 0 0 0 # h
167 10 1 -0.2 13.904349332 -0.093150759 27.892206936 0 0 0 # c2
168 10 3 0.1 13.70445214 -1.039572391 27.527056768 0 0 0 # h
169 10 3 0.1 13.626594423 -0.035069497 28.919227596 0 0 0 # h
170 10 5 0.38 12.92755395 0.478005307 27.063472716 0 0 0 # c'
171 10 6 -0.38 12.49373114 0.133402072 26.000538162 0 0 0 # o'
172 10 8 -0.5 12.521584797 1.526547476 27.639009229 0 0 0 # n
173 11 4 0.28 14.484942098 4.177349279 29.554195428 0 0 0 # hn
174 11 2 -0.3 17.983254832 3.252823044 31.174215244 0 0 0 # c3
175 11 3 0.1 18.904209583 2.752344537 31.125425867 0 0 0 # h
176 11 3 0.1 17.844290551 3.293715894 32.175391425 0 0 0 # h
177 11 1 -0.2 17.583176397 4.563141632 30.640629859 0 0 0 # c2
178 11 3 0.1 18.00070771 5.097972896 29.797190155 0 0 0 # h
179 11 3 0.1 16.826607362 4.152494059 29.991071301 0 0 0 # h
180 11 1 -0.2 16.857545366 5.298353672 31.64780348 0 0 0 # c2
181 11 3 0.1 17.295850162 5.302231141 32.70958267 0 0 0 # h
182 11 3 0.1 16.023847336 4.836734486 32.021236207 0 0 0 # h
183 11 1 -0.2 16.152458132 6.44505228 31.215660119 0 0 0 # c2
184 11 3 0.1 15.725937753 6.938375741 32.020168793 0 0 0 # h
185 11 3 0.1 16.837964792 7.119249487 30.758594466 0 0 0 # h
186 11 1 -0.2 14.944715492 6.024114622 30.356907345 0 0 0 # c2
187 11 3 0.1 14.222480284 5.414877982 30.794954826 0 0 0 # h
188 11 3 0.1 14.387706464 6.884601342 30.173227534 0 0 0 # h
189 11 5 0.38 15.40578231 5.730825842 29.072492204 0 0 0 # c'
190 11 6 -0.38 16.317204972 6.384960887 28.655378236 0 0 0 # o'
191 11 8 -0.5 14.963920698 4.624354662 28.713699552 0 0 0 # n
192 11 3 0.1 17.324924655 2.495866142 30.699084795 0 0 0 # h

Bonds

1 5 1 19
2 1 2 5
3 2 2 4
4 2 2 3
5 6 2 39
6 1 5 8
7 2 5 7
8 2 5 6
9 1 8 11
10 2 8 10
11 2 8 9
12 1 11 14
13 2 11 13
14 2 11 12
15 2 14 16
16 2 14 15
17 7 14 17
18 8 17 18
19 9 17 19
20 5 20 19
21 10 21 39
22 1 22 25
23 2 22 24
24 2 22 23
25 6 22 58
26 1 25 28
27 2 25 27
28 2 25 26
29 1 28 31
30 2 28 30
31 2 28 29
32 1 31 34
33 2 31 33
34 2 31 32
35 2 34 36
36 2 34 35
37 7 34 37
38 8 37 38
39 11 37 39
40 10 40 58
41 1 41 44
42 2 41 43
43 2 41 42
44 6 41 77
45 1 44 47
46 2 44 46
47 2 44 45
48 1 47 50
49 2 47 49
50 2 47 48
51 1 50 53
52 2 50 52
53 2 50 51
54 2 53 55
55 2 53 54
56 7 53 56
57 8 56 57
58 11 56 58
59 10 59 77
60 1 60 63
61 2 60 62
62 2 60 61
63 6 60 96
64 1 63 66
65 2 63 65
66 2 63 64
67 1 66 69
68 2 66 68
69 2 66 67
70 1 69 72
71 2 69 71
72 2 69 70
73 2 72 74
74 2 72 73
75 7 72 75
76 8 75 76
77 11 75 77
78 10 78 96
79 1 79 82
80 2 79 81
81 2 79 80
82 6 79 115
83 1 82 85
84 2 82 84
85 2 82 83
86 1 85 88
87 2 85 87
88 2 85 86
89 1 88 91
90 2 88 90
91 2 88 89
92 2 91 93
93 2 91 92
94 7 91 94
95 8 94 95
96 11 94 96
97 10 97 115
98 1 98 101
99 2 98 100
100 2 98 99
101 6 98 134
102 1 101 104
103 2 101 103
104 2 101 102
105 1 104 107
106 2 104 106
107 2 104 105
108 1 107 110
109 2 107 109
110 2 107 108
111 2 110 112
112 2 110 111
113 7 110 113
114 8 113 114
115 11 113 115
116 10 116 134
117 1 117 120
118 2 117 119
119 2 117 118
120 6 117 153
121 1 120 123
122 2 120 122
123 2 120 121
124 1 123 126
125 2 123 125
126 2 123 124
127 1 126 129
128 2 126 128
129 2 126 127
130 2 129 131
131 2 129 130
132 7 129 132
133 8 132 133
134 11 132 134
135 10 135 153
136 1 136 139
137 2 136 138
138 2 136 137
139 6 136 172
140 1 139 142
141 2 139 141
142 2 139 140
143 1 142 145
144 2 142 144
145 2 142 143
146 1 145 148
147 2 145 147
148 2 145 146
149 2 148 150
150 2 148 149
151 7 148 151
152 8 151 152
153 11 151 153
154 10 154 172
155 1 155 158
156 2 155 157
157 2 155 156
158 6 155 191
159 1 158 161
160 2 158 160
161 2 158 159
162 1 161 164
163 2 161 163
164 2 161 162
165 1 164 167
166 2 164 166
167 2 164 165
168 2 167 169
169 2 167 168
170 7 167 170
171 8 170 171
172 11 170 172
173 10 173 191
174 3 177 174
175 4 174 176
176 4 174 175
177 4 174 192
178 1 177 180
179 2 177 179
180 2 177 178
181 1 180 183
182 2 180 182
183 2 180 181
184 1 183 186
185 2 183 185
186 2 183 184
187 2 186 188
188 2 186 187
189 7 186 189
190 8 189 190
191 11 189 191

Angles

1 1 5 2 4
2 1 5 2 3
3 8 5 2 39
4 2 4 2 3
5 9 4 2 39
6 9 3 2 39
7 3 2 5 8
8 1 2 5 7
9 1 2 5 6
10 1 8 5 7
11 1 8 5 6
12 2 7 5 6
13 3 5 8 11
14 1 5 8 10
15 1 5 8 9
16 1 11 8 10
17 1 11 8 9
18 2 10 8 9
19 3 8 11 14
20 1 8 11 13
21 1 8 11 12
22 1 14 11 13
23 1 14 11 12
24 2 13 11 12
25 2 16 14 15
26 1 11 14 16
27 10 16 14 17
28 1 11 14 15
29 10 15 14 17
30 11 11 14 17
31 12 18 17 19
32 13 14 17 18
33 14 14 17 19
34 15 20 19 17
35 15 1 19 17
36 16 20 19 1
37 1 25 22 24
38 1 25 22 23
39 8 25 22 58
40 2 24 22 23
41 9 24 22 58
42 9 23 22 58
43 3 22 25 28
44 1 22 25 27
45 1 22 25 26
46 1 28 25 27
47 1 28 25 26
48 2 27 25 26
49 3 25 28 31
50 1 25 28 30
51 1 25 28 29
52 1 31 28 30
53 1 31 28 29
54 2 30 28 29
55 3 28 31 34
56 1 28 31 33
57 1 28 31 32
58 1 34 31 33
59 1 34 31 32
60 2 33 31 32
61 2 36 34 35
62 1 31 34 36
63 10 36 34 37
64 1 31 34 35
65 10 35 34 37
66 11 31 34 37
67 17 38 37 39
68 13 34 37 38
69 18 34 37 39
70 19 21 39 37
71 20 2 39 37
72 21 2 39 21
73 1 44 41 43
74 1 44 41 42
75 8 44 41 77
76 2 43 41 42
77 9 43 41 77
78 9 42 41 77
79 3 41 44 47
80 1 41 44 46
81 1 41 44 45
82 1 47 44 46
83 1 47 44 45
84 2 46 44 45
85 3 44 47 50
86 1 44 47 49
87 1 44 47 48
88 1 50 47 49
89 1 50 47 48
90 2 49 47 48
91 3 47 50 53
92 1 47 50 52
93 1 47 50 51
94 1 53 50 52
95 1 53 50 51
96 2 52 50 51
97 2 55 53 54
98 1 50 53 55
99 10 55 53 56
100 1 50 53 54
101 10 54 53 56
102 11 50 53 56
103 17 57 56 58
104 13 53 56 57
105 18 53 56 58
106 19 40 58 56
107 20 22 58 56
108 21 22 58 40
109 1 63 60 62
110 1 63 60 61
111 8 63 60 96
112 2 62 60 61
113 9 62 60 96
114 9 61 60 96
115 3 60 63 66
116 1 60 63 65
117 1 60 63 64
118 1 66 63 65
119 1 66 63 64
120 2 65 63 64
121 3 63 66 69
122 1 63 66 68
123 1 63 66 67
124 1 69 66 68
125 1 69 66 67
126 2 68 66 67
127 3 66 69 72
128 1 66 69 71
129 1 66 69 70
130 1 72 69 71
131 1 72 69 70
132 2 71 69 70
133 2 74 72 73
134 1 69 72 74
135 10 74 72 75
136 1 69 72 73
137 10 73 72 75
138 11 69 72 75
139 17 76 75 77
140 13 72 75 76
141 18 72 75 77
142 19 59 77 75
143 20 41 77 75
144 21 41 77 59
145 1 82 79 81
146 1 82 79 80
147 8 82 79 115
148 2 81 79 80
149 9 81 79 115
150 9 80 79 115
151 3 79 82 85
152 1 79 82 84
153 1 79 82 83
154 1 85 82 84
155 1 85 82 83
156 2 84 82 83
157 3 82 85 88
158 1 82 85 87
159 1 82 85 86
160 1 88 85 87
161 1 88 85 86
162 2 87 85 86
163 3 85 88 91
164 1 85 88 90
165 1 85 88 89
166 1 91 88 90
167 1 91 88 89
168 2 90 88 89
169 2 93 91 92
170 1 88 91 93
171 10 93 91 94
172 1 88 91 92
173 10 92 91 94
174 11 88 91 94
175 17 95 94 96
176 13 91 94 95
177 18 91 94 96
178 19 78 96 94
179 20 60 96 94
180 21 60 96 78
181 1 101 98 100
182 1 101 98 99
183 8 101 98 134
184 2 100 98 99
185 9 100 98 134
186 9 99 98 134
187 3 98 101 104
188 1 98 101 103
189 1 98 101 102
190 1 104 101 103
191 1 104 101 102
192 2 103 101 102
193 3 101 104 107
194 1 101 104 106
195 1 101 104 105
196 1 107 104 106
197 1 107 104 105
198 2 106 104 105
199 3 104 107 110
200 1 104 107 109
201 1 104 107 108
202 1 110 107 109
203 1 110 107 108
204 2 109 107 108
205 2 112 110 111
206 1 107 110 112
207 10 112 110 113
208 1 107 110 111
209 10 111 110 113
210 11 107 110 113
211 17 114 113 115
212 13 110 113 114
213 18 110 113 115
214 19 97 115 113
215 20 79 115 113
216 21 79 115 97
217 1 120 117 119
218 1 120 117 118
219 8 120 117 153
220 2 119 117 118
221 9 119 117 153
222 9 118 117 153
223 3 117 120 123
224 1 117 120 122
225 1 117 120 121
226 1 123 120 122
227 1 123 120 121
228 2 122 120 121
229 3 120 123 126
230 1 120 123 125
231 1 120 123 124
232 1 126 123 125
233 1 126 123 124
234 2 125 123 124
235 3 123 126 129
236 1 123 126 128
237 1 123 126 127
238 1 129 126 128
239 1 129 126 127
240 2 128 126 127
241 2 131 129 130
242 1 126 129 131
243 10 131 129 132
244 1 126 129 130
245 10 130 129 132
246 11 126 129 132
247 17 133 132 134
248 13 129 132 133
249 18 129 132 134
250 19 116 134 132
251 20 98 134 132
252 21 98 134 116
253 1 139 136 138
254 1 139 136 137
255 8 139 136 172
256 2 138 136 137
257 9 138 136 172
258 9 137 136 172
259 3 136 139 142
260 1 136 139 141
261 1 136 139 140
262 1 142 139 141
263 1 142 139 140
264 2 141 139 140
265 3 139 142 145
266 1 139 142 144
267 1 139 142 143
268 1 145 142 144
269 1 145 142 143
270 2 144 142 143
271 3 142 145 148
272 1 142 145 147
273 1 142 145 146
274 1 148 145 147
275 1 148 145 146
276 2 147 145 146
277 2 150 148 149
278 1 145 148 150
279 10 150 148 151
280 1 145 148 149
281 10 149 148 151
282 11 145 148 151
283 17 152 151 153
284 13 148 151 152
285 18 148 151 153
286 19 135 153 151
287 20 117 153 151
288 21 117 153 135
289 1 158 155 157
290 1 158 155 156
291 8 158 155 191
292 2 157 155 156
293 9 157 155 191
294 9 156 155 191
295 3 155 158 161
296 1 155 158 160
297 1 155 158 159
298 1 161 158 160
299 1 161 158 159
300 2 160 158 159
301 3 158 161 164
302 1 158 161 163
303 1 158 161 162
304 1 164 161 163
305 1 164 161 162
306 2 163 161 162
307 3 161 164 167
308 1 161 164 166
309 1 161 164 165
310 1 167 164 166
311 1 167 164 165
312 2 166 164 165
313 2 169 167 168
314 1 164 167 169
315 10 169 167 170
316 1 164 167 168
317 10 168 167 170
318 11 164 167 170
319 17 171 170 172
320 13 167 170 171
321 18 167 170 172
322 19 154 172 170
323 20 136 172 170
324 21 136 172 154
325 6 177 174 176
326 6 177 174 175
327 6 177 174 192
328 7 176 174 175
329 7 176 174 192
330 7 175 174 192
331 4 180 177 174
332 5 174 177 179
333 5 174 177 178
334 1 180 177 179
335 1 180 177 178
336 2 179 177 178
337 3 177 180 183
338 1 177 180 182
339 1 177 180 181
340 1 183 180 182
341 1 183 180 181
342 2 182 180 181
343 3 180 183 186
344 1 180 183 185
345 1 180 183 184
346 1 186 183 185
347 1 186 183 184
348 2 185 183 184
349 2 188 186 187
350 1 183 186 188
351 10 188 186 189
352 1 183 186 187
353 10 187 186 189
354 11 183 186 189
355 17 190 189 191
356 13 186 189 190
357 18 186 189 191
358 19 173 191 189
359 20 155 191 189
360 21 155 191 173

Dihedrals

1 2 8 5 2 4
2 1 4 2 5 7
3 1 4 2 5 6
4 2 8 5 2 3
5 1 3 2 5 7
6 1 3 2 5 6
7 8 8 5 2 39
8 9 7 5 2 39
9 9 6 5 2 39
10 10 5 2 39 37
11 11 5 2 39 21
12 12 4 2 39 37
13 13 4 2 39 21
14 12 3 2 39 37
15 13 3 2 39 21
16 3 2 5 8 11
17 2 2 5 8 10
18 2 2 5 8 9
19 2 11 8 5 7
20 1 7 5 8 10
21 1 7 5 8 9
22 2 11 8 5 6
23 1 6 5 8 10
24 1 6 5 8 9
25 3 5 8 11 14
26 2 5 8 11 13
27 2 5 8 11 12
28 2 14 11 8 10
29 1 10 8 11 13
30 1 10 8 11 12
31 2 14 11 8 9
32 1 9 8 11 13
33 1 9 8 11 12
34 2 8 11 14 16
35 2 8 11 14 15
36 14 8 11 14 17
37 1 13 11 14 16
38 1 13 11 14 15
39 15 13 11 14 17
40 1 12 11 14 16
41 1 12 11 14 15
42 15 12 11 14 17
43 16 16 14 17 18
44 17 16 14 17 19
45 16 15 14 17 18
46 17 15 14 17 19
47 18 11 14 17 18
48 19 11 14 17 19
49 20 18 17 19 20
50 20 18 17 19 1
51 21 14 17 19 20
52 21 14 17 19 1
53 2 28 25 22 24
54 1 24 22 25 27
55 1 24 22 25 26
56 2 28 25 22 23
57 1 23 22 25 27
58 1 23 22 25 26
59 8 28 25 22 58
60 9 27 25 22 58
61 9 26 25 22 58
62 10 25 22 58 56
63 11 25 22 58 40
64 12 24 22 58 56
65 13 24 22 58 40
66 12 23 22 58 56
67 13 23 22 58 40
68 3 22 25 28 31
69 2 22 25 28 30
70 2 22 25 28 29
71 2 31 28 25 27
72 1 27 25 28 30
73 1 27 25 28 29
74 2 31 28 25 26
75 1 26 25 28 30
76 1 26 25 28 29
77 3 25 28 31 34
78 2 25 28 31 33
79 2 25 28 31 32
80 2 34 31 28 30
81 1 30 28 31 33
82 1 30 28 31 32
83 2 34 31 28 29
84 1 29 28 31 33
85 1 29 28 31 32
86 2 28 31 34 36
87 2 28 31 34 35
88 14 28 31 34 37
89 1 33 31 34 36
90 1 33 31 34 35
91 15 33 31 34 37
92 1 32 31 34 36
93 1 32 31 34 35
94 15 32 31 34 37
95 16 36 34 37 38
96 22 36 34 37 39
97 16 35 34 37 38
98 22 35 34 37 39
99 18 31 34 37 38
100 23 31 34 37 39
101 24 38 37 39 21
102 25 38 37 39 2
103 26 34 37 39 21
104 27 34 37 39 2
105 2 47 44 41 43
106 1 43 41 44 46
107 1 43 41 44 45
108 2 47 44 41 42
109 1 42 41 44 46
110 1 42 41 44 45
111 8 47 44 41 77
112 9 46 44 41 77
113 9 45 44 41 77
114 10 44 41 77 75
115 11 44 41 77 59
116 12 43 41 77 75
117 13 43 41 77 59
118 12 42 41 77 75
119 13 42 41 77 59
120 3 41 44 47 50
121 2 41 44 47 49
122 2 41 44 47 48
123 2 50 47 44 46
124 1 46 44 47 49
125 1 46 44 47 48
126 2 50 47 44 45
127 1 45 44 47 49
128 1 45 44 47 48
129 3 44 47 50 53
130 2 44 47 50 52
131 2 44 47 50 51
132 2 53 50 47 49
133 1 49 47 50 52
134 1 49 47 50 51
135 2 53 50 47 48
136 1 48 47 50 52
137 1 48 47 50 51
138 2 47 50 53 55
139 2 47 50 53 54
140 14 47 50 53 56
141 1 52 50 53 55
142 1 52 50 53 54
143 15 52 50 53 56
144 1 51 50 53 55
145 1 51 50 53 54
146 15 51 50 53 56
147 16 55 53 56 57
148 22 55 53 56 58
149 16 54 53 56 57
150 22 54 53 56 58
151 18 50 53 56 57
152 23 50 53 56 58
153 24 57 56 58 40
154 25 57 56 58 22
155 26 53 56 58 40
156 27 53 56 58 22
157 2 66 63 60 62
158 1 62 60 63 65
159 1 62 60 63 64
160 2 66 63 60 61
161 1 61 60 63 65
162 1 61 60 63 64
163 8 66 63 60 96
164 9 65 63 60 96
165 9 64 63 60 96
166 10 63 60 96 94
167 11 63 60 96 78
168 12 62 60 96 94
169 13 62 60 96 78
170 12 61 60 96 94
171 13 61 60 96 78
172 3 60 63 66 69
173 2 60 63 66 68
174 2 60 63 66 67
175 2 69 66 63 65
176 1 65 63 66 68
177 1 65 63 66 67
178 2 69 66 63 64
179 1 64 63 66 68
180 1 64 63 66 67
181 3 63 66 69 72
182 2 63 66 69 71
183 2 63 66 69 70
184 2 72 69 66 68
185 1 68 66 69 71
186 1 68 66 69 70
187 2 72 69 66 67
188 1 67 66 69 71
189 1 67 66 69 70
190 2 66 69 72 74
191 2 66 69 72 73
192 14 66 69 72 75
193 1 71 69 72 74
194 1 71 69 72 73
195 15 71 69 72 75
196 1 70 69 72 74
197 1 70 69 72 73
198 15 70 69 72 75
199 16 74 72 75 76
200 22 74 72 75 77
201 16 73 72 75 76
202 22 73 72 75 77
203 18 69 72 75 76
204 23 69 72 75 77
205 24 76 75 77 59
206 25 76 75 77 41
207 26 72 75 77 59
208 27 72 75 77 41
209 2 85 82 79 81
210 1 81 79 82 84
211 1 81 79 82 83
212 2 85 82 79 80
213 1 80 79 82 84
214 1 80 79 82 83
215 8 85 82 79 115
216 9 84 82 79 115
217 9 83 82 79 115
218 10 82 79 115 113
219 11 82 79 115 97
220 12 81 79 115 113
221 13 81 79 115 97
222 12 80 79 115 113
223 13 80 79 115 97
224 3 79 82 85 88
225 2 79 82 85 87
226 2 79 82 85 86
227 2 88 85 82 84
228 1 84 82 85 87
229 1 84 82 85 86
230 2 88 85 82 83
231 1 83 82 85 87
232 1 83 82 85 86
233 3 82 85 88 91
234 2 82 85 88 90
235 2 82 85 88 89
236 2 91 88 85 87
237 1 87 85 88 90
238 1 87 85 88 89
239 2 91 88 85 86
240 1 86 85 88 90
241 1 86 85 88 89
242 2 85 88 91 93
243 2 85 88 91 92
244 14 85 88 91 94
245 1 90 88 91 93
246 1 90 88 91 92
247 15 90 88 91 94
248 1 89 88 91 93
249 1 89 88 91 92
250 15 89 88 91 94
251 16 93 91 94 95
252 22 93 91 94 96
253 16 92 91 94 95
254 22 92 91 94 96
255 18 88 91 94 95
256 23 88 91 94 96
257 24 95 94 96 78
258 25 95 94 96 60
259 26 91 94 96 78
260 27 91 94 96 60
261 2 104 101 98 100
262 1 100 98 101 103
263 1 100 98 101 102
264 2 104 101 98 99
265 1 99 98 101 103
266 1 99 98 101 102
267 8 104 101 98 134
268 9 103 101 98 134
269 9 102 101 98 134
270 10 101 98 134 132
271 11 101 98 134 116
272 12 100 98 134 132
273 13 100 98 134 116
274 12 99 98 134 132
275 13 99 98 134 116
276 3 98 101 104 107
277 2 98 101 104 106
278 2 98 101 104 105
279 2 107 104 101 103
280 1 103 101 104 106
281 1 103 101 104 105
282 2 107 104 101 102
283 1 102 101 104 106
284 1 102 101 104 105
285 3 101 104 107 110
286 2 101 104 107 109
287 2 101 104 107 108
288 2 110 107 104 106
289 1 106 104 107 109
290 1 106 104 107 108
291 2 110 107 104 105
292 1 105 104 107 109
293 1 105 104 107 108
294 2 104 107 110 112
295 2 104 107 110 111
296 14 104 107 110 113
297 1 109 107 110 112
298 1 109 107 110 111
299 15 109 107 110 113
300 1 108 107 110 112
301 1 108 107 110 111
302 15 108 107 110 113
303 16 112 110 113 114
304 22 112 110 113 115
305 16 111 110 113 114
306 22 111 110 113 115
307 18 107 110 113 114
308 23 107 110 113 115
309 24 114 113 115 97
310 25 114 113 115 79
311 26 110 113 115 97
312 27 110 113 115 79
313 2 123 120 117 119
314 1 119 117 120 122
315 1 119 117 120 121
316 2 123 120 117 118
317 1 118 117 120 122
318 1 118 117 120 121
319 8 123 120 117 153
320 9 122 120 117 153
321 9 121 120 117 153
322 10 120 117 153 151
323 11 120 117 153 135
324 12 119 117 153 151
325 13 119 117 153 135
326 12 118 117 153 151
327 13 118 117 153 135
328 3 117 120 123 126
329 2 117 120 123 125
330 2 117 120 123 124
331 2 126 123 120 122
332 1 122 120 123 125
333 1 122 120 123 124
334 2 126 123 120 121
335 1 121 120 123 125
336 1 121 120 123 124
337 3 120 123 126 129
338 2 120 123 126 128
339 2 120 123 126 127
340 2 129 126 123 125
341 1 125 123 126 128
342 1 125 123 126 127
343 2 129 126 123 124
344 1 124 123 126 128
345 1 124 123 126 127
346 2 123 126 129 131
347 2 123 126 129 130
348 14 123 126 129 132
349 1 128 126 129 131
350 1 128 126 129 130
351 15 128 126 129 132
352 1 127 126 129 131
353 1 127 126 129 130
354 15 127 126 129 132
355 16 131 129 132 133
356 22 131 129 132 134
357 16 130 129 132 133
358 22 130 129 132 134
359 18 126 129 132 133
360 23 126 129 132 134
361 24 133 132 134 116
362 25 133 132 134 98
363 26 129 132 134 116
364 27 129 132 134 98
365 2 142 139 136 138
366 1 138 136 139 141
367 1 138 136 139 140
368 2 142 139 136 137
369 1 137 136 139 141
370 1 137 136 139 140
371 8 142 139 136 172
372 9 141 139 136 172
373 9 140 139 136 172
374 10 139 136 172 170
375 11 139 136 172 154
376 12 138 136 172 170
377 13 138 136 172 154
378 12 137 136 172 170
379 13 137 136 172 154
380 3 136 139 142 145
381 2 136 139 142 144
382 2 136 139 142 143
383 2 145 142 139 141
384 1 141 139 142 144
385 1 141 139 142 143
386 2 145 142 139 140
387 1 140 139 142 144
388 1 140 139 142 143
389 3 139 142 145 148
390 2 139 142 145 147
391 2 139 142 145 146
392 2 148 145 142 144
393 1 144 142 145 147
394 1 144 142 145 146
395 2 148 145 142 143
396 1 143 142 145 147
397 1 143 142 145 146
398 2 142 145 148 150
399 2 142 145 148 149