LAMMPS data file. msi2lmp v3.9.6 / 11 Sep 2014 / CGCMM for ..\Conversion\anoukou-621-big-ready

   3480 atoms
   2810 bonds
   5208 angles
   7480 dihedrals
    200 impropers

  17 atom types
  16 bond types
  29 angle types
  38 dihedral types
   4 improper types

     0.446440788    31.526440788 xlo xhi
    -2.001796247    24.938203753 ylo yhi
    -2.063060861    52.936939139 zlo zhi
     0 0 0 xy xz yz

Masses

   1  26.981540 # ao
   2  24.305000 # mgo
   3  28.085500 # st
   4  15.999400 # ob
   5  15.999400 # oh
   6  15.999400 # obts
   7  15.999400 # ohs
   8   1.007970 # ho
   9  14.006700 # n4
  10  12.011150 # c2
  11  12.011150 # c3
  12   1.007970 # h
  13   1.007970 # hn
  14  12.011150 # c'
  15  15.999400 # o'
  16  14.006700 # n2
  17  14.006700 # n

Pair Coeffs # lj/cut/coul/long

   1   0.0000013297   4.2713219316 # ao
   2   0.0000009030   5.2643258688 # mgo
   3   0.0000018402   3.3019566252 # st
   4   0.1554164124   3.1655200879 # ob
   5   0.2280000124   2.8597848722 # oh
   6   0.1554164124   3.1655200879 # obts
   7   0.1554164124   3.1655200879 # ohs
   8   0.0000000000   0.0000000000 # ho
   9   0.1669999743   3.5012320066 # n4
  10   0.0389999952   3.8754094636 # c2
  11   0.0389999952   3.8754094636 # c3
  12   0.0380000011   2.4499714540 # h
  13   0.0000000000   0.0000000000 # hn
  14   0.1479999981   3.6170487995 # c'
  15   0.2280000124   2.8597848722 # o'
  16   0.1669999743   3.5012320066 # n2
  17   0.1669999743   3.5012320066 # n

Bond Coeffs # harmonic

   1   553.9350     1.0000 # oh-ho
   2   553.9350     1.0000 # ohs-ho
   3   356.5988     1.4700 # n4-c2
   4   356.5988     1.4700 # n4-c3
   5   322.7158     1.5260 # c2-c2
   6   340.6175     1.1050 # c2-h
   7   384.0000     1.4200 # oh-c2
   8   322.7158     1.5260 # c2-c3
   9   340.6175     1.1050 # c3-h
  10   457.4592     1.0260 # hn-n2
  11   377.5752     1.4600 # c2-n
  12   283.0924     1.5200 # c2-c'
  13   615.3220     1.2300 # c'-o'
  14   388.0000     1.3200 # c'-n2
  15   483.4512     1.0260 # hn-n
  16   388.0000     1.3200 # c'-n

Angle Coeffs # harmonic

   1    86.3000   112.0000 # c2-n4-c2
   2    86.3000   112.0000 # c2-n4-c3
   3    50.0000   109.5000 # n4-c2-c2
   4    57.3000   109.5000 # n4-c2-h
   5    44.4000   110.0000 # c2-c2-h
   6    39.5000   106.4000 # h-c2-h
   7    70.0000   109.5000 # oh-c2-c2
   8    57.0000   109.5000 # oh-c2-h
   9    46.6000   110.5000 # c2-c2-c2
  10    46.6000   110.5000 # c2-c2-c3
  11    44.4000   110.0000 # c3-c2-h
  12    44.4000   110.0000 # c2-c3-h
  13    39.5000   106.4000 # h-c3-h
  14    57.3000   109.5000 # n4-c3-h
  15    58.5000   106.0000 # ho-oh-c2
  16    50.0000   109.5000 # c2-c2-n
  17    51.5000   109.5000 # h-c2-n
  18    45.0000   109.5000 # h-c2-c'
  19    46.6000   110.5000 # c2-c2-c'
  20    68.0000   120.0000 # o'-c'-n2
  21    68.0000   120.0000 # c2-c'-o'
  22    53.5000   114.1000 # c2-c'-n2
  23    37.5000   115.0000 # hn-n2-c'
  24    33.0000   125.0000 # hn-n2-hn
  25    68.0000   120.0000 # o'-c'-n
  26    53.5000   114.1000 # c2-c'-n
  27    37.5000   115.0000 # hn-n-c'
  28   111.0000   118.0000 # c2-n-c'
  29    35.0000   122.0000 # c2-n-hn

Dihedral Coeffs # harmonic

  1     0.0889   1   3 # c2-n4-c2-c2
  2     0.0889   1   3 # c2-n4-c2-h
  3     0.0889   1   3 # c3-n4-c2-c2
  4     0.0889   1   3 # c3-n4-c2-h
  5     0.0889   1   3 # c2-n4-c3-h
  6     0.1581   1   3 # oh-c2-c2-n4
  7     0.1581   1   3 # n4-c2-c2-h
  8     0.1581   1   3 # oh-c2-c2-h
  9     0.1581   1   3 # h-c2-c2-h
 10     1.3000   1   3 # ho-oh-c2-c2
 11     1.3000   1   3 # ho-oh-c2-h
 12     0.1581   1   3 # n4-c2-c2-c2
 13     0.1581   1   3 # c2-c2-c2-h
 14     0.1581   1   3 # c2-c2-c2-c2
 15     0.1581   1   3 # c2-c2-c2-c3
 16     0.1581   1   3 # c3-c2-c2-h
 17     0.1581   1   3 # c2-c2-c3-h
 18     0.1581   1   3 # h-c2-c3-h
 19     0.1581   1   3 # c2-c2-c2-n
 20     0.1581   1   3 # h-c2-c2-n
 21     0.0000   1   0 # c2-c2-n-c'
 22     0.0000   1   0 # c2-c2-n-hn
 23     0.0000   1   0 # h-c2-n-c'
 24     0.0000   1   0 # h-c2-n-hn
 25     0.1581   1   3 # c2-c2-c2-c'
 26     0.1581   1   3 # h-c2-c2-c'
 27     0.0000   1   0 # h-c2-c'-o'
 28     0.0000   1   0 # h-c2-c'-n2
 29     0.0000   1   0 # c2-c2-c'-o'
 30     0.0000   1   0 # c2-c2-c'-n2
 31     1.5000  -1   2 # o'-c'-n2-hn
 32     1.5000  -1   2 # c2-c'-n2-hn
 33     0.0000   1   0 # h-c2-c'-n
 34     0.0000   1   0 # c2-c2-c'-n
 35     1.8000  -1   2 # o'-c'-n-hn
 36     3.8000  -1   2 # o'-c'-n-c2
 37     1.2000  -1   2 # c2-c'-n-hn
 38     3.2000  -1   2 # c2-c'-n-c2

Improper Coeffs # cvff

    1    10.0000  -1   2 # c2-c'-n2-o'
    2     0.0500  -1   2 # hn-n2-c'-hn
    3    10.0000  -1   2 # c2-c'-n-o'
    4     0.0500  -1   2 # c'-n-c2-hn

Atoms # full

      1      1   1  1.575000     4.534054000     2.990340000     3.321000000   0   0   0 # ao
      2      1   2  1.360000     4.534054000     5.989660000     3.321000000   0   0   0 # mgo
      3      1   1  1.575000     1.944054000     7.480340000     3.321000000   0   0   0 # ao
      4      1   1  1.575000     1.944054000     1.499660000     3.321000000   0   0   0 # ao
      5      1   3  2.100000     2.894584000     2.954420000     0.645000000   0   0   0 # st
      6      1   3  2.100000     2.894584000     6.025580000     0.645000000   0   0   0 # st
      7      1   3  2.100000     3.584042000     7.444420000     5.998500000   0   0   0 # st
      8      1   3  2.100000     3.584042000     1.535580000     5.998500000   0   0   0 # st
      9      1   3  2.100000    31.384584000     7.444420000     0.645000000  -1   0   0 # st
     10      1   3  2.100000    31.384584000     1.535580000     0.645000000  -1   0   0 # st
     11      1   3  2.100000     0.994042000     2.954420000     5.998500000   0   0   0 # st
     12      1   3  2.100000     0.994042000     6.025580000     5.998500000   0   0   0 # st
     13      1   4  -1.050000     2.659412000     4.490000000     0.148500000   0   0   0 # ob
     14      1   4  -1.050000     4.289040000     6.537440000     0.000000000   0   0   0 # ob
     15      1   4  -1.050000     4.289040000     2.442560000     0.000000000   0   0   0 # ob
     16      1   5  -0.950000     2.566172000     0.000000000     2.280000000   0   0   0 # oh
     17      1   6  -1.168800     2.943276000     6.205180000     2.230500000   0   0   0 # obts
     18      1   4  -1.050000     2.963996000     2.774820000     2.230500000   0   0   0 # ob
     19      1   4  -1.050000     3.819214000     0.000000000     6.493500000   0   0   0 # ob
     20      1   4  -1.050000     2.189586000     2.047440000     6.642000000   0   0   0 # ob
     21      1   4  -1.050000     2.189586000     6.932560000     6.642000000   0   0   0 # ob
     22      1   7  -1.080800     3.912454000     4.490000000     4.362000000   0   0   0 # ohs
     23      1   4  -1.050000     3.534832000     1.715180000     4.411500000   0   0   0 # ob
     24      1   6  -1.168800     3.514112000     7.264820000     4.411500000   0   0   0 # obts
     25      1   4  -1.050000    31.149412000     0.000000000     0.148500000  -1   0   0 # ob
     26      1   4  -1.050000     1.699040000     2.047440000     0.000000000   0   0   0 # ob
     27      1   4  -1.050000     1.699040000     6.932560000     0.000000000   0   0   0 # ob
     28      1   7  -1.080800     5.156172000     4.490000000     2.280000000   0   0   0 # ohs
     29      1   4  -1.050000    31.433276000     1.715180000     2.230500000  -1   0   0 # ob
     30      1   4  -1.050000    31.453996000     7.264820000     2.230500000  -1   0   0 # ob
     31      1   4  -1.050000     1.229214000     4.490000000     6.493500000   0   0   0 # ob
     32      1   4  -1.050000     4.779586000     6.537440000     6.642000000   0   0   0 # ob
     33      1   4  -1.050000     4.779586000     2.442560000     6.642000000   0   0   0 # ob
     34      1   5  -0.950000     1.322454000     0.000000000     4.362000000   0   0   0 # oh
     35      1   4  -1.050000     0.944832000     6.205180000     4.411500000   0   0   0 # ob
     36      1   4  -1.050000     0.924112000     2.774820000     4.411500000   0   0   0 # ob
     37      1   8  0.424500     5.156000000     4.490000000     1.320000000   0   0   0 # ho
     38      1   8  0.424500     3.910000000     4.490000000     5.322000000   0   0   0 # ho
     39      1   8  0.424500     2.566000000     0.000000000     1.320000000   0   0   0 # ho
     40      1   8  0.424500     1.322450000     0.000000000     5.322000000   0   0   0 # ho
     41      1   2  1.360000     9.714054000     2.990340000     3.321000000   0   0   0 # mgo
     42      1   1  1.575000     9.714054000     5.989660000     3.321000000   0   0   0 # ao
     43      1   1  1.575000     7.124054000     7.480340000     3.321000000   0   0   0 # ao
     44      1   1  1.575000     7.124054000     1.499660000     3.321000000   0   0   0 # ao
     45      1   3  2.100000     8.074584000     2.954420000     0.645000000   0   0   0 # st
     46      1   3  2.100000     8.074584000     6.025580000     0.645000000   0   0   0 # st
     47      1   3  2.100000     8.764042000     7.444420000     5.998500000   0   0   0 # st
     48      1   3  2.100000     8.764042000     1.535580000     5.998500000   0   0   0 # st
     49      1   3  2.100000     5.484584000     7.444420000     0.645000000   0   0   0 # st
     50      1   3  2.100000     5.484584000     1.535580000     0.645000000   0   0   0 # st
     51      1   3  2.100000     6.174042000     2.954420000     5.998500000   0   0   0 # st
     52      1   3  2.100000     6.174042000     6.025580000     5.998500000   0   0   0 # st
     53      1   4  -1.050000     7.839412000     4.490000000     0.148500000   0   0   0 # ob
     54      1   4  -1.050000     9.469040000     6.537440000     0.000000000   0   0   0 # ob
     55      1   4  -1.050000     9.469040000     2.442560000     0.000000000   0   0   0 # ob
     56      1   5  -0.950000     7.746172000     0.000000000     2.280000000   0   0   0 # oh
     57      1   4  -1.050000     8.123276000     6.205180000     2.230500000   0   0   0 # ob
     58      1   6  -1.168800     8.143996000     2.774820000     2.230500000   0   0   0 # obts
     59      1   4  -1.050000     8.999214000     0.000000000     6.493500000   0   0   0 # ob
     60      1   4  -1.050000     7.369586000     2.047440000     6.642000000   0   0   0 # ob
     61      1   4  -1.050000     7.369586000     6.932560000     6.642000000   0   0   0 # ob
     62      1   7  -1.080800     9.092454000     4.490000000     4.362000000   0   0   0 # ohs
     63      1   6  -1.168800     8.714832000     1.715180000     4.411500000   0   0   0 # obts
     64      1   4  -1.050000     8.694112000     7.264820000     4.411500000   0   0   0 # ob
     65      1   4  -1.050000     5.249412000     0.000000000     0.148500000   0   0   0 # ob
     66      1   4  -1.050000     6.879040000     2.047440000     0.000000000   0   0   0 # ob
     67      1   4  -1.050000     6.879040000     6.932560000     0.000000000   0   0   0 # ob
     68      1   7  -1.080800    10.336172000     4.490000000     2.280000000   0   0   0 # ohs
     69      1   4  -1.050000     5.533276000     1.715180000     2.230500000   0   0   0 # ob
     70      1   6  -1.168800     5.553996000     7.264820000     2.230500000   0   0   0 # obts
     71      1   4  -1.050000     6.409214000     4.490000000     6.493500000   0   0   0 # ob
     72      1   4  -1.050000     9.959586000     6.537440000     6.642000000   0   0   0 # ob
     73      1   4  -1.050000     9.959586000     2.442560000     6.642000000   0   0   0 # ob
     74      1   5  -0.950000     6.502454000     0.000000000     4.362000000   0   0   0 # oh
     75      1   6  -1.168800     6.124832000     6.205180000     4.411500000   0   0   0 # obts
     76      1   4  -1.050000     6.104112000     2.774820000     4.411500000   0   0   0 # ob
     77      1   8  0.424500    10.336000000     4.490000000     1.320000000   0   0   0 # ho
     78      1   8  0.424500     9.090000000     4.490000000     5.322000000   0   0   0 # ho
     79      1   8  0.424500     7.746000000     0.000000000     1.320000000   0   0   0 # ho
     80      1   8  0.424500     6.502450000     0.000000000     5.322000000   0   0   0 # ho
     81      1   1  1.575000    14.894054000     2.990340000     3.321000000   0   0   0 # ao
     82      1   1  1.575000    14.894054000     5.989660000     3.321000000   0   0   0 # ao
     83      1   1  1.575000    12.304054000     7.480340000     3.321000000   0   0   0 # ao
     84      1   1  1.575000    12.304054000     1.499660000     3.321000000   0   0   0 # ao
     85      1   3  2.100000    13.254584000     2.954420000     0.645000000   0   0   0 # st
     86      1   3  2.100000    13.254584000     6.025580000     0.645000000   0   0   0 # st
     87      1   3  2.100000    13.944042000     7.444420000     5.998500000   0   0   0 # st
     88      1   3  2.100000    13.944042000     1.535580000     5.998500000   0   0   0 # st
     89      1   3  2.100000    10.664584000     7.444420000     0.645000000   0   0   0 # st
     90      1   3  2.100000    10.664584000     1.535580000     0.645000000   0   0   0 # st
     91      1   3  2.100000    11.354042000     2.954420000     5.998500000   0   0   0 # st
     92      1   3  2.100000    11.354042000     6.025580000     5.998500000   0   0   0 # st
     93      1   4  -1.050000    13.019412000     4.490000000     0.148500000   0   0   0 # ob
     94      1   4  -1.050000    14.649040000     6.537440000     0.000000000   0   0   0 # ob
     95      1   4  -1.050000    14.649040000     2.442560000     0.000000000   0   0   0 # ob
     96      1   5  -0.950000    12.926172000     0.000000000     2.280000000   0   0   0 # oh
     97      1   4  -1.050000    13.303276000     6.205180000     2.230500000   0   0   0 # ob
     98      1   4  -1.050000    13.323996000     2.774820000     2.230500000   0   0   0 # ob
     99      1   4  -1.050000    14.179214000     0.000000000     6.493500000   0   0   0 # ob
    100      1   4  -1.050000    12.549586000     2.047440000     6.642000000   0   0   0 # ob
    101      1   4  -1.050000    12.549586000     6.932560000     6.642000000   0   0   0 # ob
    102      1   5  -0.950000    14.272454000     4.490000000     4.362000000   0   0   0 # oh
    103      1   4  -1.050000    13.894832000     1.715180000     4.411500000   0   0   0 # ob
    104      1   4  -1.050000    13.874112000     7.264820000     4.411500000   0   0   0 # ob
    105      1   4  -1.050000    10.429412000     0.000000000     0.148500000   0   0   0 # ob
    106      1   4  -1.050000    12.059040000     2.047440000     0.000000000   0   0   0 # ob
    107      1   4  -1.050000    12.059040000     6.932560000     0.000000000   0   0   0 # ob
    108      1   5  -0.950000    15.516172000     4.490000000     2.280000000   0   0   0 # oh
    109      1   6  -1.168800    10.713276000     1.715180000     2.230500000   0   0   0 # obts
    110      1   4  -1.050000    10.733996000     7.264820000     2.230500000   0   0   0 # ob
    111      1   4  -1.050000    11.589214000     4.490000000     6.493500000   0   0   0 # ob
    112      1   4  -1.050000    15.139586000     6.537440000     6.642000000   0   0   0 # ob
    113      1   4  -1.050000    15.139586000     2.442560000     6.642000000   0   0   0 # ob
    114      1   5  -0.950000    11.682454000     0.000000000     4.362000000   0   0   0 # oh
    115      1   4  -1.050000    11.304832000     6.205180000     4.411500000   0   0   0 # ob
    116      1   6  -1.168800    11.284112000     2.774820000     4.411500000   0   0   0 # obts
    117      1   8  0.424500    15.516000000     4.490000000     1.320000000   0   0   0 # ho
    118      1   8  0.424500    14.270000000     4.490000000     5.322000000   0   0   0 # ho
    119      1   8  0.424500    12.926000000     0.000000000     1.320000000   0   0   0 # ho
    120      1   8  0.424500    11.682450000     0.000000000     5.322000000   0   0   0 # ho
    121      1   1  1.575000    20.074054000     2.990340000     3.321000000   0   0   0 # ao
    122      1   2  1.360000    20.074054000     5.989660000     3.321000000   0   0   0 # mgo
    123      1   1  1.575000    17.484054000     7.480340000     3.321000000   0   0   0 # ao
    124      1   1  1.575000    17.484054000     1.499660000     3.321000000   0   0   0 # ao
    125      1   3  2.100000    18.434584000     2.954420000     0.645000000   0   0   0 # st
    126      1   3  2.100000    18.434584000     6.025580000     0.645000000   0   0   0 # st
    127      1   3  2.100000    19.124042000     7.444420000     5.998500000   0   0   0 # st
    128      1   3  2.100000    19.124042000     1.535580000     5.998500000   0   0   0 # st
    129      1   3  2.100000    15.844584000     7.444420000     0.645000000   0   0   0 # st
    130      1   3  2.100000    15.844584000     1.535580000     0.645000000   0   0   0 # st
    131      1   3  2.100000    16.534042000     2.954420000     5.998500000   0   0   0 # st
    132      1   3  2.100000    16.534042000     6.025580000     5.998500000   0   0   0 # st
    133      1   4  -1.050000    18.199412000     4.490000000     0.148500000   0   0   0 # ob
    134      1   4  -1.050000    19.829040000     6.537440000     0.000000000   0   0   0 # ob
    135      1   4  -1.050000    19.829040000     2.442560000     0.000000000   0   0   0 # ob
    136      1   5  -0.950000    18.106172000     0.000000000     2.280000000   0   0   0 # oh
    137      1   6  -1.168800    18.483276000     6.205180000     2.230500000   0   0   0 # obts
    138      1   4  -1.050000    18.503996000     2.774820000     2.230500000   0   0   0 # ob
    139      1   4  -1.050000    19.359214000     0.000000000     6.493500000   0   0   0 # ob
    140      1   4  -1.050000    17.729586000     2.047440000     6.642000000   0   0   0 # ob
    141      1   4  -1.050000    17.729586000     6.932560000     6.642000000   0   0   0 # ob
    142      1   7  -1.080800    19.452454000     4.490000000     4.362000000   0   0   0 # ohs
    143      1   4  -1.050000    19.074832000     1.715180000     4.411500000   0   0   0 # ob
    144      1   6  -1.168800    19.054112000     7.264820000     4.411500000   0   0   0 # obts
    145      1   4  -1.050000    15.609412000     0.000000000     0.148500000   0   0   0 # ob
    146      1   4  -1.050000    17.239040000     2.047440000     0.000000000   0   0   0 # ob
    147      1   4  -1.050000    17.239040000     6.932560000     0.000000000   0   0   0 # ob
    148      1   7  -1.080800    20.696172000     4.490000000     2.280000000   0   0   0 # ohs
    149      1   4  -1.050000    15.893276000     1.715180000     2.230500000   0   0   0 # ob
    150      1   4  -1.050000    15.913996000     7.264820000     2.230500000   0   0   0 # ob
    151      1   4  -1.050000    16.769214000     4.490000000     6.493500000   0   0   0 # ob
    152      1   4  -1.050000    20.319586000     6.537440000     6.642000000   0   0   0 # ob
    153      1   4  -1.050000    20.319586000     2.442560000     6.642000000   0   0   0 # ob
    154      1   5  -0.950000    16.862454000     0.000000000     4.362000000   0   0   0 # oh
    155      1   4  -1.050000    16.484832000     6.205180000     4.411500000   0   0   0 # ob
    156      1   4  -1.050000    16.464112000     2.774820000     4.411500000   0   0   0 # ob
    157      1   8  0.424500    20.696000000     4.490000000     1.320000000   0   0   0 # ho
    158      1   8  0.424500    19.450000000     4.490000000     5.322000000   0   0   0 # ho
    159      1   8  0.424500    18.106000000     0.000000000     1.320000000   0   0   0 # ho
    160      1   8  0.424500    16.862450000     0.000000000     5.322000000   0   0   0 # ho
    161      1   2  1.360000    25.254054000     2.990340000     3.321000000   0   0   0 # mgo
    162      1   1  1.575000    25.254054000     5.989660000     3.321000000   0   0   0 # ao
    163      1   1  1.575000    22.664054000     7.480340000     3.321000000   0   0   0 # ao
    164      1   1  1.575000    22.664054000     1.499660000     3.321000000   0   0   0 # ao
    165      1   3  2.100000    23.614584000     2.954420000     0.645000000   0   0   0 # st
    166      1   3  2.100000    23.614584000     6.025580000     0.645000000   0   0   0 # st
    167      1   3  2.100000    24.304042000     7.444420000     5.998500000   0   0   0 # st
    168      1   3  2.100000    24.304042000     1.535580000     5.998500000   0   0   0 # st
    169      1   3  2.100000    21.024584000     7.444420000     0.645000000   0   0   0 # st
    170      1   3  2.100000    21.024584000     1.535580000     0.645000000   0   0   0 # st
    171      1   3  2.100000    21.714042000     2.954420000     5.998500000   0   0   0 # st
    172      1   3  2.100000    21.714042000     6.025580000     5.998500000   0   0   0 # st
    173      1   4  -1.050000    23.379412000     4.490000000     0.148500000   0   0   0 # ob
    174      1   4  -1.050000    25.009040000     6.537440000     0.000000000   0   0   0 # ob
    175      1   4  -1.050000    25.009040000     2.442560000     0.000000000   0   0   0 # ob
    176      1   5  -0.950000    23.286172000     0.000000000     2.280000000   0   0   0 # oh
    177      1   4  -1.050000    23.663276000     6.205180000     2.230500000   0   0   0 # ob
    178      1   6  -1.168800    23.683996000     2.774820000     2.230500000   0   0   0 # obts
    179      1   4  -1.050000    24.539214000     0.000000000     6.493500000   0   0   0 # ob
    180      1   4  -1.050000    22.909586000     2.047440000     6.642000000   0   0   0 # ob
    181      1   4  -1.050000    22.909586000     6.932560000     6.642000000   0   0   0 # ob
    182      1   7  -1.080800    24.632454000     4.490000000     4.362000000   0   0   0 # ohs
    183      1   6  -1.168800    24.254832000     1.715180000     4.411500000   0   0   0 # obts
    184      1   4  -1.050000    24.234112000     7.264820000     4.411500000   0   0   0 # ob
    185      1   4  -1.050000    20.789412000     0.000000000     0.148500000   0   0   0 # ob
    186      1   4  -1.050000    22.419040000     2.047440000     0.000000000   0   0   0 # ob
    187      1   4  -1.050000    22.419040000     6.932560000     0.000000000   0   0   0 # ob
    188      1   7  -1.080800    25.876172000     4.490000000     2.280000000   0   0   0 # ohs
    189      1   4  -1.050000    21.073276000     1.715180000     2.230500000   0   0   0 # ob
    190      1   6  -1.168800    21.093996000     7.264820000     2.230500000   0   0   0 # obts
    191      1   4  -1.050000    21.949214000     4.490000000     6.493500000   0   0   0 # ob
    192      1   4  -1.050000    25.499586000     6.537440000     6.642000000   0   0   0 # ob
    193      1   4  -1.050000    25.499586000     2.442560000     6.642000000   0   0   0 # ob
    194      1   5  -0.950000    22.042454000     0.000000000     4.362000000   0   0   0 # oh
    195      1   6  -1.168800    21.664832000     6.205180000     4.411500000   0   0   0 # obts
    196      1   4  -1.050000    21.644112000     2.774820000     4.411500000   0   0   0 # ob
    197      1   8  0.424500    25.876000000     4.490000000     1.320000000   0   0   0 # ho
    198      1   8  0.424500    24.630000000     4.490000000     5.322000000   0   0   0 # ho
    199      1   8  0.424500    23.286000000     0.000000000     1.320000000   0   0   0 # ho
    200      1   8  0.424500    22.042450000     0.000000000     5.322000000   0   0   0 # ho
    201      1   1  1.575000    30.434054000     2.990340000     3.321000000   0   0   0 # ao
    202      1   1  1.575000    30.434054000     5.989660000     3.321000000   0   0   0 # ao
    203      1   1  1.575000    27.844054000     7.480340000     3.321000000   0   0   0 # ao
    204      1   1  1.575000    27.844054000     1.499660000     3.321000000   0   0   0 # ao
    205      1   3  2.100000    28.794584000     2.954420000     0.645000000   0   0   0 # st
    206      1   3  2.100000    28.794584000     6.025580000     0.645000000   0   0   0 # st
    207      1   3  2.100000    29.484042000     7.444420000     5.998500000   0   0   0 # st
    208      1   3  2.100000    29.484042000     1.535580000     5.998500000   0   0   0 # st
    209      1   3  2.100000    26.204584000     7.444420000     0.645000000   0   0   0 # st
    210      1   3  2.100000    26.204584000     1.535580000     0.645000000   0   0   0 # st
    211      1   3  2.100000    26.894042000     2.954420000     5.998500000   0   0   0 # st
    212      1   3  2.100000    26.894042000     6.025580000     5.998500000   0   0   0 # st
    213      1   4  -1.050000    28.559412000     4.490000000     0.148500000   0   0   0 # ob
    214      1   4  -1.050000    30.189040000     6.537440000     0.000000000   0   0   0 # ob
    215      1   4  -1.050000    30.189040000     2.442560000     0.000000000   0   0   0 # ob
    216      1   5  -0.950000    28.466172000     0.000000000     2.280000000   0   0   0 # oh
    217      1   4  -1.050000    28.843276000     6.205180000     2.230500000   0   0   0 # ob
    218      1   4  -1.050000    28.863996000     2.774820000     2.230500000   0   0   0 # ob
    219      1   4  -1.050000    29.719214000     0.000000000     6.493500000   0   0   0 # ob
    220      1   4  -1.050000    28.089586000     2.047440000     6.642000000   0   0   0 # ob
    221      1   4  -1.050000    28.089586000     6.932560000     6.642000000   0   0   0 # ob
    222      1   5  -0.950000    29.812454000     4.490000000     4.362000000   0   0   0 # oh
    223      1   4  -1.050000    29.434832000     1.715180000     4.411500000   0   0   0 # ob
    224      1   4  -1.050000    29.414112000     7.264820000     4.411500000   0   0   0 # ob
    225      1   4  -1.050000    25.969412000     0.000000000     0.148500000   0   0   0 # ob
    226      1   4  -1.050000    27.599040000     2.047440000     0.000000000   0   0   0 # ob
    227      1   4  -1.050000    27.599040000     6.932560000     0.000000000   0   0   0 # ob
    228      1   5  -0.950000    31.056172000     4.490000000     2.280000000   0   0   0 # oh
    229      1   6  -1.168800    26.253276000     1.715180000     2.230500000   0   0   0 # obts
    230      1   4  -1.050000    26.273996000     7.264820000     2.230500000   0   0   0 # ob
    231      1   4  -1.050000    27.129214000     4.490000000     6.493500000   0   0   0 # ob
    232      1   4  -1.050000    30.679586000     6.537440000     6.642000000   0   0   0 # ob
    233      1   4  -1.050000    30.679586000     2.442560000     6.642000000   0   0   0 # ob
    234      1   5  -0.950000    27.222454000     0.000000000     4.362000000   0   0   0 # oh
    235      1   4  -1.050000    26.844832000     6.205180000     4.411500000   0   0   0 # ob
    236      1   6  -1.168800    26.824112000     2.774820000     4.411500000   0   0   0 # obts
    237      1   8  0.424500    31.056000000     4.490000000     1.320000000   0   0   0 # ho
    238      1   8  0.424500    29.810000000     4.490000000     5.322000000   0   0   0 # ho
    239      1   8  0.424500    28.466000000     0.000000000     1.320000000   0   0   0 # ho
    240      1   8  0.424500    27.222450000     0.000000000     5.322000000   0   0   0 # ho
    241      1   1  1.575000     4.534054000    11.970340000     3.321000000   0   0   0 # ao
    242      1   2  1.360000     4.534054000    14.969660000     3.321000000   0   0   0 # mgo
    243      1   1  1.575000     1.944054000    16.460340000     3.321000000   0   0   0 # ao
    244      1   1  1.575000     1.944054000    10.479660000     3.321000000   0   0   0 # ao
    245      1   3  2.100000     2.894584000    11.934420000     0.645000000   0   0   0 # st
    246      1   3  2.100000     2.894584000    15.005580000     0.645000000   0   0   0 # st
    247      1   3  2.100000     3.584042000    16.424420000     5.998500000   0   0   0 # st
    248      1   3  2.100000     3.584042000    10.515580000     5.998500000   0   0   0 # st
    249      1   3  2.100000    31.384584000    16.424420000     0.645000000  -1   0   0 # st
    250      1   3  2.100000    31.384584000    10.515580000     0.645000000  -1   0   0 # st
    251      1   3  2.100000     0.994042000    11.934420000     5.998500000   0   0   0 # st
    252      1   3  2.100000     0.994042000    15.005580000     5.998500000   0   0   0 # st
    253      1   4  -1.050000     2.659412000    13.470000000     0.148500000   0   0   0 # ob
    254      1   4  -1.050000     4.289040000    15.517440000     0.000000000   0   0   0 # ob
    255      1   4  -1.050000     4.289040000    11.422560000     0.000000000   0   0   0 # ob
    256      1   5  -0.950000     2.566172000     8.980000000     2.280000000   0   0   0 # oh
    257      1   6  -1.168800     2.943276000    15.185180000     2.230500000   0   0   0 # obts
    258      1   4  -1.050000     2.963996000    11.754820000     2.230500000   0   0   0 # ob
    259      1   4  -1.050000     3.819214000     8.980000000     6.493500000   0   0   0 # ob
    260      1   4  -1.050000     2.189586000    11.027440000     6.642000000   0   0   0 # ob
    261      1   4  -1.050000     2.189586000    15.912560000     6.642000000   0   0   0 # ob