LAMMPS data file via write_data, version 9 Nov 2016, timestep = 0

14040 atoms
17 atom types
8100 bonds
16 bond types
14472 angles
29 angle types
21060 dihedrals
38 dihedral types
0 impropers
4 improper types

4.4644078799999998e-01 9.3686440787999999e+01 xlo xhi
-2.0017962470000001e+00 7.8818203753000006e+01 ylo yhi
-2.0630608609999999e+00 5.2936939139000003e+01 zlo zhi
0.0000000000000000e+00 0.0000000000000000e+00 0.0000000000000000e+00 xy xz yz

Masses

1 26.9815
2 24.305
3 28.0855
4 15.9994
5 15.9994
6 15.9994
7 15.9994
8 1.00797
9 14.0067
10 12.0112
11 12.0112
12 1.00797
13 1.00797
14 12.0112
15 15.9994
16 14.0067
17 14.0067

Pair Coeffs # lj/cut/coul/long

1 1.3297e-06 4.27132
2 9.03e-07 5.26433
3 1.8402e-06 3.30196
4 0.155416 3.16552
5 0.228 2.85978
6 0.155416 3.16552
7 0.155416 3.16552
8 0 0
9 0.167 3.50123
10 0.039 3.87541
11 0.039 3.87541
12 0.038 2.44997
13 0 0
14 0.148 3.61705
15 0.228 2.85978
16 0.167 3.50123
17 0.167 3.50123

Bond Coeffs # harmonic

1 553.935 1
2 553.935 1
3 356.599 1.47
4 356.599 1.47
5 322.716 1.526
6 340.618 1.105
7 384 1.42
8 322.716 1.526
9 340.618 1.105
10 457.459 1.026
11 377.575 1.46
12 283.092 1.52
13 615.322 1.23
14 388 1.32
15 483.451 1.026
16 388 1.32

Angle Coeffs # harmonic

1 86.3 112
2 86.3 112
3 50 109.5
4 57.3 109.5
5 44.4 110
6 39.5 106.4
7 70 109.5
8 57 109.5
9 46.6 110.5
10 46.6 110.5
11 44.4 110
12 44.4 110
13 39.5 106.4
14 57.3 109.5
15 58.5 106
16 50 109.5
17 51.5 109.5
18 45 109.5
19 46.6 110.5
20 68 120
21 68 120
22 53.5 114.1
23 37.5 115
24 33 125
25 68 120
26 53.5 114.1
27 37.5 115
28 111 118
29 35 122

Dihedral Coeffs # harmonic

1 0.0889 1 3
2 0.0889 1 3
3 0.0889 1 3
4 0.0889 1 3
5 0.0889 1 3
6 0.1581 1 3
7 0.1581 1 3
8 0.1581 1 3
9 0.1581 1 3
10 1.3 1 3
11 1.3 1 3
12 0.1581 1 3
13 0.1581 1 3
14 0.1581 1 3
15 0.1581 1 3
16 0.1581 1 3
17 0.1581 1 3
18 0.1581 1 3
19 0.1581 1 3
20 0.1581 1 3
21 0 1 0
22 0 1 0
23 0 1 0
24 0 1 0
25 0.1581 1 3
26 0.1581 1 3
27 0 1 0
28 0 1 0
29 0 1 0
30 0 1 0
31 1.5 -1 2
32 1.5 -1 2
33 0 1 0
34 0 1 0
35 1.8 -1 2
36 3.8 -1 2
37 1.2 -1 2
38 3.2 -1 2

Improper Coeffs # cvff

1 10 -1 2
2 0.05 -1 2
3 10 -1 2
4 0.05 -1 2

Atoms # full

1 1 1 1.5750000000000000e+00 4.5340539999999994e+00 2.9903400000000002e+00 3.3209999999999984e+00 0 0 0
2 1 2 1.3600000000000001e+00 4.5340539999999994e+00 5.9896600000000007e+00 3.3209999999999984e+00 0 0 0
3 1 1 1.5750000000000000e+00 1.9440539999999999e+00 7.4803400000000000e+00 3.3209999999999984e+00 0 0 0
4 1 1 1.5750000000000000e+00 1.9440539999999999e+00 1.4996599999999995e+00 3.3209999999999984e+00 0 0 0
5 1 3 2.1000000000000001e+00 2.8945840000000000e+00 2.9544200000000003e+00 6.4500000000000002e-01 0 0 0
6 1 3 2.1000000000000001e+00 2.8945840000000000e+00 6.0255799999999997e+00 6.4500000000000002e-01 0 0 0
7 1 3 2.1000000000000001e+00 3.5840420000000002e+00 7.4444200000000009e+00 5.9984999999999999e+00 0 0 0
8 1 3 2.1000000000000001e+00 3.5840420000000002e+00 1.5355799999999999e+00 5.9984999999999999e+00 0 0 0
9 1 3 2.1000000000000001e+00 9.3544584000000000e+01 7.4444200000000009e+00 6.4500000000000002e-01 -1 0 0
10 1 3 2.1000000000000001e+00 9.3544584000000000e+01 1.5355799999999999e+00 6.4500000000000002e-01 -1 0 0
11 1 3 2.1000000000000001e+00 9.9404199999999998e-01 2.9544200000000003e+00 5.9984999999999999e+00 0 0 0
12 1 3 2.1000000000000001e+00 9.9404199999999998e-01 6.0255799999999997e+00 5.9984999999999999e+00 0 0 0
13 1 4 -1.0500000000000000e+00 2.6594119999999997e+00 4.4899999999999984e+00 1.4849999999999941e-01 0 0 0
14 1 4 -1.0500000000000000e+00 4.2890400000000000e+00 6.5374400000000001e+00 0.0000000000000000e+00 0 0 0
15 1 4 -1.0500000000000000e+00 4.2890400000000000e+00 2.4425599999999998e+00 0.0000000000000000e+00 0 0 0
16 1 5 -9.4999999999999996e-01 2.5661719999999999e+00 0.0000000000000000e+00 2.2799999999999998e+00 0 0 0
17 1 6 -1.1688000000000001e+00 2.9432759999999996e+00 6.2051800000000004e+00 2.2304999999999988e+00 0 0 0
18 1 4 -1.0500000000000000e+00 2.9639959999999999e+00 2.7748199999999996e+00 2.2304999999999988e+00 0 0 0
19 1 4 -1.0500000000000000e+00 3.8192139999999997e+00 0.0000000000000000e+00 6.4934999999999992e+00 0 0 0
20 1 4 -1.0500000000000000e+00 2.1895859999999998e+00 2.0474399999999995e+00 6.6419999999999995e+00 0 0 0
21 1 4 -1.0500000000000000e+00 2.1895859999999998e+00 6.9325600000000005e+00 6.6419999999999995e+00 0 0 0
22 1 7 -1.0808000000000000e+00 3.9124539999999985e+00 4.4899999999999984e+00 4.3620000000000001e+00 0 0 0
23 1 4 -1.0500000000000000e+00 3.5348320000000002e+00 1.7151799999999997e+00 4.4115000000000002e+00 0 0 0
24 1 6 -1.1688000000000001e+00 3.5141119999999995e+00 7.2648200000000003e+00 4.4115000000000002e+00 0 0 0
25 1 4 -1.0500000000000000e+00 9.3309411999999995e+01 0.0000000000000000e+00 1.4849999999999941e-01 -1 0 0
26 1 4 -1.0500000000000000e+00 1.6990400000000001e+00 2.0474399999999995e+00 0.0000000000000000e+00 0 0 0
27 1 4 -1.0500000000000000e+00 1.6990400000000001e+00 6.9325600000000005e+00 0.0000000000000000e+00 0 0 0
28 1 7 -1.0808000000000000e+00 5.1561719999999998e+00 4.4899999999999984e+00 2.2799999999999998e+00 0 0 0
29 1 4 -1.0500000000000000e+00 9.3593276000000003e+01 1.7151799999999997e+00 2.2304999999999988e+00 -1 0 0
30 1 4 -1.0500000000000000e+00 9.3613996000000000e+01 7.2648200000000003e+00 2.2304999999999988e+00 -1 0 0
31 1 4 -1.0500000000000000e+00 1.2292140000000000e+00 4.4899999999999984e+00 6.4934999999999992e+00 0 0 0
32 1 4 -1.0500000000000000e+00 4.7795860000000001e+00 6.5374400000000001e+00 6.6419999999999995e+00 0 0 0
33 1 4 -1.0500000000000000e+00 4.7795860000000001e+00 2.4425599999999998e+00 6.6419999999999995e+00 0 0 0
34 1 5 -9.4999999999999996e-01 1.3224540000000000e+00 0.0000000000000000e+00 4.3620000000000001e+00 0 0 0
35 1 4 -1.0500000000000000e+00 9.4483199999999989e-01 6.2051800000000004e+00 4.4115000000000002e+00 0 0 0
36 1 4 -1.0500000000000000e+00 9.2411200000000004e-01 2.7748199999999996e+00 4.4115000000000002e+00 0 0 0
37 1 8 4.2449999999999999e-01 5.1559999999999988e+00 4.4899999999999984e+00 1.3199999999999994e+00 0 0 0
38 1 8 4.2449999999999999e-01 3.9099999999999997e+00 4.4899999999999984e+00 5.3219999999999992e+00 0 0 0
39 1 8 4.2449999999999999e-01 2.5659999999999998e+00 0.0000000000000000e+00 1.3199999999999994e+00 0 0 0
40 1 8 4.2449999999999999e-01 1.3224499999999999e+00 0.0000000000000000e+00 5.3219999999999992e+00 0 0 0
41 1 2 1.3600000000000001e+00 9.7140540000000009e+00 2.9903400000000002e+00 3.3209999999999984e+00 0 0 0
42 1 1 1.5750000000000000e+00 9.7140540000000009e+00 5.9896600000000007e+00 3.3209999999999984e+00 0 0 0
43 1 1 1.5750000000000000e+00 7.1240539999999992e+00 7.4803400000000000e+00 3.3209999999999984e+00 0 0 0
44 1 1 1.5750000000000000e+00 7.1240539999999992e+00 1.4996599999999995e+00 3.3209999999999984e+00 0 0 0
45 1 3 2.1000000000000001e+00 8.0745839999999998e+00 2.9544200000000003e+00 6.4500000000000002e-01 0 0 0
46 1 3 2.1000000000000001e+00 8.0745839999999998e+00 6.0255799999999997e+00 6.4500000000000002e-01 0 0 0
47 1 3 2.1000000000000001e+00 8.7640419999999999e+00 7.4444200000000009e+00 5.9984999999999999e+00 0 0 0
48 1 3 2.1000000000000001e+00 8.7640419999999999e+00 1.5355799999999999e+00 5.9984999999999999e+00 0 0 0
49 1 3 2.1000000000000001e+00 5.4845839999999990e+00 7.4444200000000009e+00 6.4500000000000002e-01 0 0 0
50 1 3 2.1000000000000001e+00 5.4845839999999990e+00 1.5355799999999999e+00 6.4500000000000002e-01 0 0 0
51 1 3 2.1000000000000001e+00 6.1740420000000000e+00 2.9544200000000003e+00 5.9984999999999999e+00 0 0 0
52 1 3 2.1000000000000001e+00 6.1740420000000000e+00 6.0255799999999997e+00 5.9984999999999999e+00 0 0 0
53 1 4 -1.0500000000000000e+00 7.8394119999999994e+00 4.4899999999999984e+00 1.4849999999999941e-01 0 0 0
54 1 4 -1.0500000000000000e+00 9.4690399999999979e+00 6.5374400000000001e+00 0.0000000000000000e+00 0 0 0
55 1 4 -1.0500000000000000e+00 9.4690399999999979e+00 2.4425599999999998e+00 0.0000000000000000e+00 0 0 0
56 1 5 -9.4999999999999996e-01 7.7461719999999987e+00 0.0000000000000000e+00 2.2799999999999998e+00 0 0 0
57 1 4 -1.0500000000000000e+00 8.1232760000000006e+00 6.2051800000000004e+00 2.2304999999999988e+00 0 0 0
58 1 6 -1.1688000000000001e+00 8.1439959999999996e+00 2.7748199999999996e+00 2.2304999999999988e+00 0 0 0
59 1 4 -1.0500000000000000e+00 8.9992140000000003e+00 0.0000000000000000e+00 6.4934999999999992e+00 0 0 0
60 1 4 -1.0500000000000000e+00 7.3695860000000000e+00 2.0474399999999995e+00 6.6419999999999995e+00 0 0 0
61 1 4 -1.0500000000000000e+00 7.3695860000000000e+00 6.9325600000000005e+00 6.6419999999999995e+00 0 0 0
62 1 7 -1.0808000000000000e+00 9.0924539999999983e+00 4.4899999999999984e+00 4.3620000000000001e+00 0 0 0
63 1 6 -1.1688000000000001e+00 8.7148319999999995e+00 1.7151799999999997e+00 4.4115000000000002e+00 0 0 0
64 1 4 -1.0500000000000000e+00 8.6941119999999987e+00 7.2648200000000003e+00 4.4115000000000002e+00 0 0 0
65 1 4 -1.0500000000000000e+00 5.2494120000000004e+00 0.0000000000000000e+00 1.4849999999999941e-01 0 0 0
66 1 4 -1.0500000000000000e+00 6.8790399999999989e+00 2.0474399999999995e+00 0.0000000000000000e+00 0 0 0
67 1 4 -1.0500000000000000e+00 6.8790399999999989e+00 6.9325600000000005e+00 0.0000000000000000e+00 0 0 0
68 1 7 -1.0808000000000000e+00 1.0336171999999999e+01 4.4899999999999984e+00 2.2799999999999998e+00 0 0 0
69 1 4 -1.0500000000000000e+00 5.5332759999999999e+00 1.7151799999999997e+00 2.2304999999999988e+00 0 0 0
70 1 6 -1.1688000000000001e+00 5.5539959999999997e+00 7.2648200000000003e+00 2.2304999999999988e+00 0 0 0
71 1 4 -1.0500000000000000e+00 6.4092140000000004e+00 4.4899999999999984e+00 6.4934999999999992e+00 0 0 0
72 1 4 -1.0500000000000000e+00 9.9595859999999998e+00 6.5374400000000001e+00 6.6419999999999995e+00 0 0 0
73 1 4 -1.0500000000000000e+00 9.9595859999999998e+00 2.4425599999999998e+00 6.6419999999999995e+00 0 0 0
74 1 5 -9.4999999999999996e-01 6.5024539999999993e+00 0.0000000000000000e+00 4.3620000000000001e+00 0 0 0
75 1 6 -1.1688000000000001e+00 6.1248319999999996e+00 6.2051800000000004e+00 4.4115000000000002e+00 0 0 0
76 1 4 -1.0500000000000000e+00 6.1041119999999980e+00 2.7748199999999996e+00 4.4115000000000002e+00 0 0 0
77 1 8 4.2449999999999999e-01 1.0336000000000000e+01 4.4899999999999984e+00 1.3199999999999994e+00 0 0 0
78 1 8 4.2449999999999999e-01 9.0899999999999981e+00 4.4899999999999984e+00 5.3219999999999992e+00 0 0 0
79 1 8 4.2449999999999999e-01 7.7459999999999996e+00 0.0000000000000000e+00 1.3199999999999994e+00 0 0 0
80 1 8 4.2449999999999999e-01 6.5024499999999996e+00 0.0000000000000000e+00 5.3219999999999992e+00 0 0 0
81 1 1 1.5750000000000000e+00 1.4894053999999999e+01 2.9903400000000002e+00 3.3209999999999984e+00 0 0 0
82 1 1 1.5750000000000000e+00 1.4894053999999999e+01 5.9896600000000007e+00 3.3209999999999984e+00 0 0 0
83 1 1 1.5750000000000000e+00 1.2304054000000001e+01 7.4803400000000000e+00 3.3209999999999984e+00 0 0 0
84 1 1 1.5750000000000000e+00 1.2304054000000001e+01 1.4996599999999995e+00 3.3209999999999984e+00 0 0 0
85 1 3 2.1000000000000001e+00 1.3254583999999998e+01 2.9544200000000003e+00 6.4500000000000002e-01 0 0 0
86 1 3 2.1000000000000001e+00 1.3254583999999998e+01 6.0255799999999997e+00 6.4500000000000002e-01 0 0 0
87 1 3 2.1000000000000001e+00 1.3944042000000000e+01 7.4444200000000009e+00 5.9984999999999999e+00 0 0 0
88 1 3 2.1000000000000001e+00 1.3944042000000000e+01 1.5355799999999999e+00 5.9984999999999999e+00 0 0 0
89 1 3 2.1000000000000001e+00 1.0664584000000000e+01 7.4444200000000009e+00 6.4500000000000002e-01 0 0 0
90 1 3 2.1000000000000001e+00 1.0664584000000000e+01 1.5355799999999999e+00 6.4500000000000002e-01 0 0 0
91 1 3 2.1000000000000001e+00 1.1354042000000000e+01 2.9544200000000003e+00 5.9984999999999999e+00 0 0 0
92 1 3 2.1000000000000001e+00 1.1354042000000000e+01 6.0255799999999997e+00 5.9984999999999999e+00 0 0 0
93 1 4 -1.0500000000000000e+00 1.3019411999999999e+01 4.4899999999999984e+00 1.4849999999999941e-01 0 0 0
94 1 4 -1.0500000000000000e+00 1.4649039999999998e+01 6.5374400000000001e+00 0.0000000000000000e+00 0 0 0
95 1 4 -1.0500000000000000e+00 1.4649039999999998e+01 2.4425599999999998e+00 0.0000000000000000e+00 0 0 0
96 1 5 -9.4999999999999996e-01 1.2926171999999999e+01 0.0000000000000000e+00 2.2799999999999998e+00 0 0 0
97 1 4 -1.0500000000000000e+00 1.3303275999999999e+01 6.2051800000000004e+00 2.2304999999999988e+00 0 0 0
98 1 4 -1.0500000000000000e+00 1.3323995999999998e+01 2.7748199999999996e+00 2.2304999999999988e+00 0 0 0
99 1 4 -1.0500000000000000e+00 1.4179213999999996e+01 0.0000000000000000e+00 6.4934999999999992e+00 0 0 0
100 1 4 -1.0500000000000000e+00 1.2549586000000000e+01 2.0474399999999995e+00 6.6419999999999995e+00 0 0 0
101 1 4 -1.0500000000000000e+00 1.2549586000000000e+01 6.9325600000000005e+00 6.6419999999999995e+00 0 0 0
102 1 5 -9.4999999999999996e-01 1.4272454000000000e+01 4.4899999999999984e+00 4.3620000000000001e+00 0 0 0
103 1 4 -1.0500000000000000e+00 1.3894831999999997e+01 1.7151799999999997e+00 4.4115000000000002e+00 0 0 0
104 1 4 -1.0500000000000000e+00 1.3874111999999998e+01 7.2648200000000003e+00 4.4115000000000002e+00 0 0 0
105 1 4 -1.0500000000000000e+00 1.0429411999999999e+01 0.0000000000000000e+00 1.4849999999999941e-01 0 0 0
106 1 4 -1.0500000000000000e+00 1.2059040000000000e+01 2.0474399999999995e+00 0.0000000000000000e+00 0 0 0
107 1 4 -1.0500000000000000e+00 1.2059040000000000e+01 6.9325600000000005e+00 0.0000000000000000e+00 0 0 0
108 1 5 -9.4999999999999996e-01 1.5516171999999996e+01 4.4899999999999984e+00 2.2799999999999998e+00 0 0 0
109 1 6 -1.1688000000000001e+00 1.0713275999999997e+01 1.7151799999999997e+00 2.2304999999999988e+00 0 0 0
110 1 4 -1.0500000000000000e+00 1.0733995999999999e+01 7.2648200000000003e+00 2.2304999999999988e+00 0 0 0
111 1 4 -1.0500000000000000e+00 1.1589214000000000e+01 4.4899999999999984e+00 6.4934999999999992e+00 0 0 0
112 1 4 -1.0500000000000000e+00 1.5139585999999998e+01 6.5374400000000001e+00 6.6419999999999995e+00 0 0 0
113 1 4 -1.0500000000000000e+00 1.5139585999999998e+01 2.4425599999999998e+00 6.6419999999999995e+00 0 0 0
114 1 5 -9.4999999999999996e-01 1.1682454000000000e+01 0.0000000000000000e+00 4.3620000000000001e+00 0 0 0
115 1 4 -1.0500000000000000e+00 1.1304831999999998e+01 6.2051800000000004e+00 4.4115000000000002e+00 0 0 0
116 1 6 -1.1688000000000001e+00 1.1284112000000000e+01 2.7748199999999996e+00 4.4115000000000002e+00 0 0 0
117 1 8 4.2449999999999999e-01 1.5515999999999998e+01 4.4899999999999984e+00 1.3199999999999994e+00 0 0 0
118 1 8 4.2449999999999999e-01 1.4270000000000000e+01 4.4899999999999984e+00 5.3219999999999992e+00 0 0 0
119 1 8 4.2449999999999999e-01 1.2926000000000000e+01 0.0000000000000000e+00 1.3199999999999994e+00 0 0 0
120 1 8 4.2449999999999999e-01 1.1682449999999999e+01 0.0000000000000000e+00 5.3219999999999992e+00 0 0 0
121 1 1 1.5750000000000000e+00 2.0074054000000000e+01 2.9903400000000002e+00 3.3209999999999984e+00 0 0 0
122 1 2 1.3600000000000001e+00 2.0074054000000000e+01 5.9896600000000007e+00 3.3209999999999984e+00 0 0 0
123 1 1 1.5750000000000000e+00 1.7484054000000000e+01 7.4803400000000000e+00 3.3209999999999984e+00 0 0 0
124 1 1 1.5750000000000000e+00 1.7484054000000000e+01 1.4996599999999995e+00 3.3209999999999984e+00 0 0 0
125 1 3 2.1000000000000001e+00 1.8434584000000001e+01 2.9544200000000003e+00 6.4500000000000002e-01 0 0 0
126 1 3 2.1000000000000001e+00 1.8434584000000001e+01 6.0255799999999997e+00 6.4500000000000002e-01 0 0 0
127 1 3 2.1000000000000001e+00 1.9124041999999996e+01 7.4444200000000009e+00 5.9984999999999999e+00 0 0 0
128 1 3 2.1000000000000001e+00 1.9124041999999996e+01 1.5355799999999999e+00 5.9984999999999999e+00 0 0 0
129 1 3 2.1000000000000001e+00 1.5844583999999994e+01 7.4444200000000009e+00 6.4500000000000002e-01 0 0 0
130 1 3 2.1000000000000001e+00 1.5844583999999994e+01 1.5355799999999999e+00 6.4500000000000002e-01 0 0 0
131 1 3 2.1000000000000001e+00 1.6534041999999999e+01 2.9544200000000003e+00 5.9984999999999999e+00 0 0 0
132 1 3 2.1000000000000001e+00 1.6534041999999999e+01 6.0255799999999997e+00 5.9984999999999999e+00 0 0 0
133 1 4 -1.0500000000000000e+00 1.8199411999999999e+01 4.4899999999999984e+00 1.4849999999999941e-01 0 0 0
134 1 4 -1.0500000000000000e+00 1.9829039999999999e+01 6.5374400000000001e+00 0.0000000000000000e+00 0 0 0
135 1 4 -1.0500000000000000e+00 1.9829039999999999e+01 2.4425599999999998e+00 0.0000000000000000e+00 0 0 0
136 1 5 -9.4999999999999996e-01 1.8106172000000001e+01 0.0000000000000000e+00 2.2799999999999998e+00 0 0 0
137 1 6 -1.1688000000000001e+00 1.8483275999999996e+01 6.2051800000000004e+00 2.2304999999999988e+00 0 0 0
138 1 4 -1.0500000000000000e+00 1.8503996000000001e+01 2.7748199999999996e+00 2.2304999999999988e+00 0 0 0
139 1 4 -1.0500000000000000e+00 1.9359213999999998e+01 0.0000000000000000e+00 6.4934999999999992e+00 0 0 0
140 1 4 -1.0500000000000000e+00 1.7729585999999994e+01 2.0474399999999995e+00 6.6419999999999995e+00 0 0 0
141 1 4 -1.0500000000000000e+00 1.7729585999999994e+01 6.9325600000000005e+00 6.6419999999999995e+00 0 0 0
142 1 7 -1.0808000000000000e+00 1.9452453999999999e+01 4.4899999999999984e+00 4.3620000000000001e+00 0 0 0
143 1 4 -1.0500000000000000e+00 1.9074832000000001e+01 1.7151799999999997e+00 4.4115000000000002e+00 0 0 0
144 1 6 -1.1688000000000001e+00 1.9054112000000000e+01 7.2648200000000003e+00 4.4115000000000002e+00 0 0 0
145 1 4 -1.0500000000000000e+00 1.5609412000000001e+01 0.0000000000000000e+00 1.4849999999999941e-01 0 0 0
146 1 4 -1.0500000000000000e+00 1.7239039999999999e+01 2.0474399999999995e+00 0.0000000000000000e+00 0 0 0
147 1 4 -1.0500000000000000e+00 1.7239039999999999e+01 6.9325600000000005e+00 0.0000000000000000e+00 0 0 0
148 1 7 -1.0808000000000000e+00 2.0696172000000001e+01 4.4899999999999984e+00 2.2799999999999998e+00 0 0 0
149 1 4 -1.0500000000000000e+00 1.5893276000000000e+01 1.7151799999999997e+00 2.2304999999999988e+00 0 0 0
150 1 4 -1.0500000000000000e+00 1.5913995999999999e+01 7.2648200000000003e+00 2.2304999999999988e+00 0 0 0
151 1 4 -1.0500000000000000e+00 1.6769214000000002e+01 4.4899999999999984e+00 6.4934999999999992e+00 0 0 0
152 1 4 -1.0500000000000000e+00 2.0319586000000001e+01 6.5374400000000001e+00 6.6419999999999995e+00 0 0 0
153 1 4 -1.0500000000000000e+00 2.0319586000000001e+01 2.4425599999999998e+00 6.6419999999999995e+00 0 0 0
154 1 5 -9.4999999999999996e-01 1.6862454000000000e+01 0.0000000000000000e+00 4.3620000000000001e+00 0 0 0
155 1 4 -1.0500000000000000e+00 1.6484832000000001e+01 6.2051800000000004e+00 4.4115000000000002e+00 0 0 0
156 1 4 -1.0500000000000000e+00 1.6464112000000000e+01 2.7748199999999996e+00 4.4115000000000002e+00 0 0 0
157 1 8 4.2449999999999999e-01 2.0696000000000002e+01 4.4899999999999984e+00 1.3199999999999994e+00 0 0 0
158 1 8 4.2449999999999999e-01 1.9449999999999992e+01 4.4899999999999984e+00 5.3219999999999992e+00 0 0 0
159 1 8 4.2449999999999999e-01 1.8106000000000002e+01 0.0000000000000000e+00 1.3199999999999994e+00 0 0 0
160 1 8 4.2449999999999999e-01 1.6862449999999999e+01 0.0000000000000000e+00 5.3219999999999992e+00 0 0 0
161 1 2 1.3600000000000001e+00 2.5254054000000000e+01 2.9903400000000002e+00 3.3209999999999984e+00 0 0 0
162 1 1 1.5750000000000000e+00 2.5254054000000000e+01 5.9896600000000007e+00 3.3209999999999984e+00 0 0 0
163 1 1 1.5750000000000000e+00 2.2664054000000000e+01 7.4803400000000000e+00 3.3209999999999984e+00 0 0 0
164 1 1 1.5750000000000000e+00 2.2664054000000000e+01 1.4996599999999995e+00 3.3209999999999984e+00 0 0 0
165 1 3 2.1000000000000001e+00 2.3614584000000001e+01 2.9544200000000003e+00 6.4500000000000002e-01 0 0 0
166 1 3 2.1000000000000001e+00 2.3614584000000001e+01 6.0255799999999997e+00 6.4500000000000002e-01 0 0 0
167 1 3 2.1000000000000001e+00 2.4304041999999999e+01 7.4444200000000009e+00 5.9984999999999999e+00 0 0 0
168 1 3 2.1000000000000001e+00 2.4304041999999999e+01 1.5355799999999999e+00 5.9984999999999999e+00 0 0 0
169 1 3 2.1000000000000001e+00 2.1024583999999997e+01 7.4444200000000009e+00 6.4500000000000002e-01 0 0 0
170 1 3 2.1000000000000001e+00 2.1024583999999997e+01 1.5355799999999999e+00 6.4500000000000002e-01 0 0 0
171 1 3 2.1000000000000001e+00 2.1714041999999999e+01 2.9544200000000003e+00 5.9984999999999999e+00 0 0 0
172 1 3 2.1000000000000001e+00 2.1714041999999999e+01 6.0255799999999997e+00 5.9984999999999999e+00 0 0 0
173 1 4 -1.0500000000000000e+00 2.3379411999999999e+01 4.4899999999999984e+00 1.4849999999999941e-01 0 0 0
174 1 4 -1.0500000000000000e+00 2.5009039999999999e+01 6.5374400000000001e+00 0.0000000000000000e+00 0 0 0
175 1 4 -1.0500000000000000e+00 2.5009039999999999e+01 2.4425599999999998e+00 0.0000000000000000e+00 0 0 0
176 1 5 -9.4999999999999996e-01 2.3286171999999997e+01 0.0000000000000000e+00 2.2799999999999998e+00 0 0 0
177 1 4 -1.0500000000000000e+00 2.3663275999999996e+01 6.2051800000000004e+00 2.2304999999999988e+00 0 0 0
178 1 6 -1.1688000000000001e+00 2.3683996000000000e+01 2.7748199999999996e+00 2.2304999999999988e+00 0 0 0
179 1 4 -1.0500000000000000e+00 2.4539214000000001e+01 0.0000000000000000e+00 6.4934999999999992e+00 0 0 0
180 1 4 -1.0500000000000000e+00 2.2909586000000001e+01 2.0474399999999995e+00 6.6419999999999995e+00 0 0 0
181 1 4 -1.0500000000000000e+00 2.2909586000000001e+01 6.9325600000000005e+00 6.6419999999999995e+00 0 0 0
182 1 7 -1.0808000000000000e+00 2.4632453999999996e+01 4.4899999999999984e+00 4.3620000000000001e+00 0 0 0
183 1 6 -1.1688000000000001e+00 2.4254831999999997e+01 1.7151799999999997e+00 4.4115000000000002e+00 0 0 0
184 1 4 -1.0500000000000000e+00 2.4234112000000000e+01 7.2648200000000003e+00 4.4115000000000002e+00 0 0 0
185 1 4 -1.0500000000000000e+00 2.0789411999999995e+01 0.0000000000000000e+00 1.4849999999999941e-01 0 0 0
186 1 4 -1.0500000000000000e+00 2.2419039999999995e+01 2.0474399999999995e+00 0.0000000000000000e+00 0 0 0
187 1 4 -1.0500000000000000e+00 2.2419039999999995e+01 6.9325600000000005e+00 0.0000000000000000e+00 0 0 0
188 1 7 -1.0808000000000000e+00 2.5876171999999997e+01 4.4899999999999984e+00 2.2799999999999998e+00 0 0 0
189 1 4 -1.0500000000000000e+00 2.1073276000000000e+01 1.7151799999999997e+00 2.2304999999999988e+00 0 0 0
190 1 6 -1.1688000000000001e+00 2.1093996000000001e+01 7.2648200000000003e+00 2.2304999999999988e+00 0 0 0
191 1 4 -1.0500000000000000e+00 2.1949214000000001e+01 4.4899999999999984e+00 6.4934999999999992e+00 0 0 0
192 1 4 -1.0500000000000000e+00 2.5499585999999994e+01 6.5374400000000001e+00 6.6419999999999995e+00 0 0 0
193 1 4 -1.0500000000000000e+00 2.5499585999999994e+01 2.4425599999999998e+00 6.6419999999999995e+00 0 0 0
194 1 5 -9.4999999999999996e-01 2.2042453999999996e+01 0.0000000000000000e+00 4.3620000000000001e+00 0 0 0
195 1 6 -1.1688000000000001e+00 2.1664832000000001e+01 6.2051800000000004e+00 4.4115000000000002e+00 0 0 0
196 1 4 -1.0500000000000000e+00 2.1644112000000000e+01 2.7748199999999996e+00 4.4115000000000002e+00 0 0 0
197 1 8 4.2449999999999999e-01 2.5876000000000001e+01 4.4899999999999984e+00 1.3199999999999994e+00 0 0 0
198 1 8 4.2449999999999999e-01 2.4629999999999995e+01 4.4899999999999984e+00 5.3219999999999992e+00 0 0 0
199 1 8 4.2449999999999999e-01 2.3285999999999998e+01 0.0000000000000000e+00 1.3199999999999994e+00 0 0 0
200 1 8 4.2449999999999999e-01 2.2042449999999995e+01 0.0000000000000000e+00 5.3219999999999992e+00 0 0 0
201 1 1 1.5750000000000000e+00 3.0434053999999996e+01 2.9903400000000002e+00 3.3209999999999984e+00 0 0 0
202 1 1 1.5750000000000000e+00 3.0434053999999996e+01 5.9896600000000007e+00 3.3209999999999984e+00 0 0 0
203 1 1 1.5750000000000000e+00 2.7844054000000000e+01 7.4803400000000000e+00 3.3209999999999984e+00 0 0 0
204 1 1 1.5750000000000000e+00 2.7844054000000000e+01 1.4996599999999995e+00 3.3209999999999984e+00 0 0 0
205 1 3 2.1000000000000001e+00 2.8794583999999997e+01 2.9544200000000003e+00 6.4500000000000002e-01 0 0 0
206 1 3 2.1000000000000001e+00 2.8794583999999997e+01 6.0255799999999997e+00 6.4500000000000002e-01 0 0 0
207 1 3 2.1000000000000001e+00 2.9484041999999999e+01 7.4444200000000009e+00 5.9984999999999999e+00 0 0 0
208 1 3 2.1000000000000001e+00 2.9484041999999999e+01 1.5355799999999999e+00 5.9984999999999999e+00 0 0 0
209 1 3 2.1000000000000001e+00 2.6204584000000001e+01 7.4444200000000009e+00 6.4500000000000002e-01 0 0 0
210 1 3 2.1000000000000001e+00 2.6204584000000001e+01 1.5355799999999999e+00 6.4500000000000002e-01 0 0 0
211 1 3 2.1000000000000001e+00 2.6894041999999995e+01 2.9544200000000003e+00 5.9984999999999999e+00 0 0 0
212 1 3 2.1000000000000001e+00 2.6894041999999995e+01 6.0255799999999997e+00 5.9984999999999999e+00 0 0 0
213 1 4 -1.0500000000000000e+00 2.8559411999999995e+01 4.4899999999999984e+00 1.4849999999999941e-01 0 0 0
214 1 4 -1.0500000000000000e+00 3.0189039999999995e+01 6.5374400000000001e+00 0.0000000000000000e+00 0 0 0
215 1 4 -1.0500000000000000e+00 3.0189039999999995e+01 2.4425599999999998e+00 0.0000000000000000e+00 0 0 0
216 1 5 -9.4999999999999996e-01 2.8466171999999997e+01 0.0000000000000000e+00 2.2799999999999998e+00 0 0 0
217 1 4 -1.0500000000000000e+00 2.8843275999999999e+01 6.2051800000000004e+00 2.2304999999999988e+00 0 0 0
218 1 4 -1.0500000000000000e+00 2.8863995999999997e+01 2.7748199999999996e+00 2.2304999999999988e+00 0 0 0
219 1 4 -1.0500000000000000e+00 2.9719213999999997e+01 0.0000000000000000e+00 6.4934999999999992e+00 0 0 0
220 1 4 -1.0500000000000000e+00 2.8089586000000001e+01 2.0474399999999995e+00 6.6419999999999995e+00 0 0 0
221 1 4 -1.0500000000000000e+00 2.8089586000000001e+01 6.9325600000000005e+00 6.6419999999999995e+00 0 0 0
222 1 5 -9.4999999999999996e-01 2.9812453999999992e+01 4.4899999999999984e+00 4.3620000000000001e+00 0 0 0
223 1 4 -1.0500000000000000e+00 2.9434831999999993e+01 1.7151799999999997e+00 4.4115000000000002e+00 0 0 0
224 1 4 -1.0500000000000000e+00 2.9414111999999996e+01 7.2648200000000003e+00 4.4115000000000002e+00 0 0 0
225 1 4 -1.0500000000000000e+00 2.5969411999999998e+01 0.0000000000000000e+00 1.4849999999999941e-01 0 0 0
226 1 4 -1.0500000000000000e+00 2.7599039999999995e+01 2.0474399999999995e+00 0.0000000000000000e+00 0 0 0
227 1 4 -1.0500000000000000e+00 2.7599039999999995e+01 6.9325600000000005e+00 0.0000000000000000e+00 0 0 0
228 1 5 -9.4999999999999996e-01 3.1056171999999993e+01 4.4899999999999984e+00 2.2799999999999998e+00 0 0 0
229 1 6 -1.1688000000000001e+00 2.6253276000000000e+01 1.7151799999999997e+00 2.2304999999999988e+00 0 0 0
230 1 4 -1.0500000000000000e+00 2.6273996000000000e+01 7.2648200000000003e+00 2.2304999999999988e+00 0 0 0
231 1 4 -1.0500000000000000e+00 2.7129213999999997e+01 4.4899999999999984e+00 6.4934999999999992e+00 0 0 0
232 1 4 -1.0500000000000000e+00 3.0679586000000000e+01 6.5374400000000001e+00 6.6419999999999995e+00 0 0 0
233 1 4 -1.0500000000000000e+00 3.0679586000000000e+01 2.4425599999999998e+00 6.6419999999999995e+00 0 0 0
234 1 5 -9.4999999999999996e-01 2.7222453999999992e+01 0.0000000000000000e+00 4.3620000000000001e+00 0 0 0
235 1 4 -1.0500000000000000e+00 2.6844831999999997e+01 6.2051800000000004e+00 4.4115000000000002e+00 0 0 0
236 1 6 -1.1688000000000001e+00 2.6824111999999996e+01 2.7748199999999996e+00 4.4115000000000002e+00 0 0 0
237 1 8 4.2449999999999999e-01 3.1055999999999997e+01 4.4899999999999984e+00 1.3199999999999994e+00 0 0 0
238 1 8 4.2449999999999999e-01 2.9809999999999999e+01 4.4899999999999984e+00 5.3219999999999992e+00 0 0 0
239 1 8 4.2449999999999999e-01 2.8466000000000001e+01 0.0000000000000000e+00 1.3199999999999994e+00 0 0 0
240 1 8 4.2449999999999999e-01 2.7222449999999995e+01 0.0000000000000000e+00 5.3219999999999992e+00 0 0 0
241 1 1 1.5750000000000000e+00 4.5340539999999994e+00 1.1970339999999997e+01 3.3209999999999984e+00 0 0 0
242 1 2 1.3600000000000001e+00 4.5340539999999994e+00 1.4969659999999999e+01 3.3209999999999984e+00 0 0 0
243 1 1 1.5750000000000000e+00 1.9440539999999999e+00 1.6460339999999999e+01 3.3209999999999984e+00 0 0 0
244 1 1 1.5750000000000000e+00 1.9440539999999999e+00 1.0479659999999999e+01 3.3209999999999984e+00 0 0 0
245 1 3 2.1000000000000001e+00 2.8945840000000000e+00 1.1934419999999999e+01 6.4500000000000002e-01 0 0 0
246 1 3 2.1000000000000001e+00 2.8945840000000000e+00 1.5005580000000000e+01 6.4500000000000002e-01 0 0 0
247 1 3 2.1000000000000001e+00 3.5840420000000002e+00 1.6424420000000001e+01 5.9984999999999999e+00 0 0 0
248 1 3 2.1000000000000001e+00 3.5840420000000002e+00 1.0515579999999998e+01 5.9984999999999999e+00 0 0 0
249 1 3 2.1000000000000001e+00 9.3544584000000000e+01 1.6424420000000001e+01 6.4500000000000002e-01 -1 0 0
250 1 3 2.1000000000000001e+00 9.3544584000000000e+01 1.0515579999999998e+01 6.4500000000000002e-01 -1 0 0
251 1 3 2.1000000000000001e+00 9.9404199999999998e-01 1.1934419999999999e+01 5.9984999999999999e+00 0 0 0
252 1 3 2.1000000000000001e+00 9.9404199999999998e-01 1.5005580000000000e+01 5.9984999999999999e+00 0 0 0
253 1 4 -1.0500000000000000e+00 2.6594119999999997e+00 1.3470000000000001e+01 1.4849999999999941e-01 0 0 0
254 1 4 -1.0500000000000000e+00 4.2890400000000000e+00 1.5517440000000002e+01 0.0000000000000000e+00 0 0 0
255 1 4 -1.0500000000000000e+00 4.2890400000000000e+00 1.1422560000000001e+01 0.0000000000000000e+00 0 0 0
256 1 5 -9.4999999999999996e-01 2.5661719999999999e+00 8.9800000000000004e+00 2.2799999999999998e+00 0 0 0
257 1 6 -1.1688000000000001e+00 2.9432759999999996e+00 1.5185180000000001e+01 2.2304999999999988e+00 0 0 0
258 1 4 -1.0500000000000000e+00 2.9639959999999999e+00 1.1754820000000002e+01 2.2304999999999988e+00 0 0 0
259 1 4 -1.0500000000000000e+00 3.8192139999999997e+00 8.9800000000000004e+00 6.4934999999999992e+00 0 0 0
260 1 4 -1.0500000000000000e+00 2.1895859999999998e+00 1.1027440000000000e+01 6.6419999999999995e+00 0 0 0
261 1 4 -1.0500000000000000e+00 2.1895859999999998e+00 1.5912560000000001e+01 6.6419999999999995e+00 0 0 0
262 1 7 -1.0808000000000000e+00 3.9124539999999985e+00 1.3470000000000001e+01 4.3620000000000001e+00 0 0 0