A modified lammps file based on mix.data

1560 atoms
12 atom types
900 bonds
9 bond types
1608 angles
15 angle types
2340 dihedrals
18 dihedral types

0.446440788 31.526440788 xlo xhi
-2.001796247 24.938203753 ylo yhi
-2.063060861 52.936939139 zlo zhi
0.0 0.0 0.0 xy xz yz

Masses

1 26.98154 # ao
2 24.305 # mgo
3 28.0855 # st
4 15.9994 # ob
5 15.9994 # oh
6 15.9994 # obts
7 15.9994 # ohs
8 1.00797 # ho
9 14.0067 # n4
10 12.01115 # c2
11 12.01115 # c3
12 1.00797 # h

Pair Coeffs

1 1.3297e-06 4.2713219316 # ao
2 9.03e-07 5.2643258688 # mgo
3 1.8402e-06 3.3019566252 # st
4 0.1554164124 3.1655200879 # ob
5 0.2280000124 2.8597848722 # oh
6 0.1554164124 3.1655200879 # obts
7 0.1554164124 3.1655200879 # ohs
8 0.0 0.0 # ho
9 0.1669999743 3.5012320066 # n4
10 0.0389999952 3.8754094636 # c2
11 0.0389999952 3.8754094636 # c3
12 0.0380000011 2.449971454 # h

Bond Coeffs

1 553.935 1.0 # oh-ho
2 553.935 1.0 # ohs-ho
3 356.5988 1.47 # n4-c2
4 356.5988 1.47 # n4-c3
5 322.7158 1.526 # c2-c2
6 340.6175 1.105 # c2-h
7 384.0 1.42 # oh-c2
8 322.7158 1.526 # c2-c3
9 340.6175 1.105 # c3-h

Angle Coeffs

1 86.3 112.0 # c2-n4-c2
2 86.3 112.0 # c2-n4-c3
3 50.0 109.5 # n4-c2-c2
4 57.3 109.5 # n4-c2-h
5 44.4 110.0 # c2-c2-h
6 39.5 106.4 # h-c2-h
7 70.0 109.5 # oh-c2-c2
8 57.0 109.5 # oh-c2-h
9 46.6 110.5 # c2-c2-c2
10 46.6 110.5 # c2-c2-c3
11 44.4 110.0 # c3-c2-h
12 44.4 110.0 # c2-c3-h
13 39.5 106.4 # h-c3-h
14 57.3 109.5 # n4-c3-h
15 58.5 106.0 # ho-oh-c2

Dihedral Coeffs

1 0.0889 1 3 # c2-n4-c2-c2
2 0.0889 1 3 # c2-n4-c2-h
3 0.0889 1 3 # c3-n4-c2-c2
4 0.0889 1 3 # c3-n4-c2-h
5 0.0889 1 3 # c2-n4-c3-h
6 0.1581 1 3 # oh-c2-c2-n4
7 0.1581 1 3 # n4-c2-c2-h
8 0.1581 1 3 # oh-c2-c2-h
9 0.1581 1 3 # h-c2-c2-h
10 1.3 1 3 # ho-oh-c2-c2
11 1.3 1 3 # ho-oh-c2-h
12 0.1581 1 3 # n4-c2-c2-c2
13 0.1581 1 3 # c2-c2-c2-h
14 0.1581 1 3 # c2-c2-c2-c2
15 0.1581 1 3 # c2-c2-c2-c3
16 0.1581 1 3 # c3-c2-c2-h
17 0.1581 1 3 # c2-c2-c3-h
18 0.1581 1 3 # h-c2-c3-h

Atoms

1 1 1 1.575 4.534054 2.99034 3.321 0 0 0 # ao
2 1 2 1.36 4.534054 5.98966 3.321 0 0 0 # mgo
3 1 1 1.575 1.944054 7.48034 3.321 0 0 0 # ao
4 1 1 1.575 1.944054 1.49966 3.321 0 0 0 # ao
5 1 3 2.1 2.894584 2.95442 0.645 0 0 0 # st
6 1 3 2.1 2.894584 6.02558 0.645 0 0 0 # st
7 1 3 2.1 3.584042 7.44442 5.9985 0 0 0 # st
8 1 3 2.1 3.584042 1.53558 5.9985 0 0 0 # st
9 1 3 2.1 31.384584 7.44442 0.645 -1 0 0 # st
10 1 3 2.1 31.384584 1.53558 0.645 -1 0 0 # st
11 1 3 2.1 0.994042 2.95442 5.9985 0 0 0 # st
12 1 3 2.1 0.994042 6.02558 5.9985 0 0 0 # st
13 1 4 -1.05 2.659412 4.49 0.1485 0 0 0 # ob
14 1 4 -1.05 4.28904 6.53744 0.0 0 0 0 # ob
15 1 4 -1.05 4.28904 2.44256 0.0 0 0 0 # ob
16 1 5 -0.95 2.566172 0.0 2.28 0 0 0 # oh
17 1 6 -1.1688 2.943276 6.20518 2.2305 0 0 0 # obts
18 1 4 -1.05 2.963996 2.77482 2.2305 0 0 0 # ob
19 1 4 -1.05 3.819214 0.0 6.4935 0 0 0 # ob
20 1 4 -1.05 2.189586 2.04744 6.642 0 0 0 # ob
21 1 4 -1.05 2.189586 6.93256 6.642 0 0 0 # ob
22 1 7 -1.0808 3.912454 4.49 4.362 0 0 0 # ohs
23 1 4 -1.05 3.534832 1.71518 4.4115 0 0 0 # ob
24 1 6 -1.1688 3.514112 7.26482 4.4115 0 0 0 # obts
25 1 4 -1.05 31.149412 0.0 0.1485 -1 0 0 # ob
26 1 4 -1.05 1.69904 2.04744 0.0 0 0 0 # ob
27 1 4 -1.05 1.69904 6.93256 0.0 0 0 0 # ob
28 1 7 -1.0808 5.156172 4.49 2.28 0 0 0 # ohs
29 1 4 -1.05 31.433276 1.71518 2.2305 -1 0 0 # ob
30 1 4 -1.05 31.453996 7.26482 2.2305 -1 0 0 # ob
31 1 4 -1.05 1.229214 4.49 6.4935 0 0 0 # ob
32 1 4 -1.05 4.779586 6.53744 6.642 0 0 0 # ob
33 1 4 -1.05 4.779586 2.44256 6.642 0 0 0 # ob
34 1 5 -0.95 1.322454 0.0 4.362 0 0 0 # oh
35 1 4 -1.05 0.944832 6.20518 4.4115 0 0 0 # ob
36 1 4 -1.05 0.924112 2.77482 4.4115 0 0 0 # ob
37 1 8 0.4245 5.156 4.49 1.32 0 0 0 # ho
38 1 8 0.4245 3.91 4.49 5.322 0 0 0 # ho
39 1 8 0.4245 2.566 0.0 1.32 0 0 0 # ho
40 1 8 0.4245 1.32245 0.0 5.322 0 0 0 # ho
41 1 2 1.36 9.714054 2.99034 3.321 0 0 0 # mgo
42 1 1 1.575 9.714054 5.98966 3.321 0 0 0 # ao
43 1 1 1.575 7.124054 7.48034 3.321 0 0 0 # ao
44 1 1 1.575 7.124054 1.49966 3.321 0 0 0 # ao
45 1 3 2.1 8.074584 2.95442 0.645 0 0 0 # st
46 1 3 2.1 8.074584 6.02558 0.645 0 0 0 # st
47 1 3 2.1 8.764042 7.44442 5.9985 0 0 0 # st
48 1 3 2.1 8.764042 1.53558 5.9985 0 0 0 # st
49 1 3 2.1 5.484584 7.44442 0.645 0 0 0 # st
50 1 3 2.1 5.484584 1.53558 0.645 0 0 0 # st
51 1 3 2.1 6.174042 2.95442 5.9985 0 0 0 # st
52 1 3 2.1 6.174042 6.02558 5.9985 0 0 0 # st
53 1 4 -1.05 7.839412 4.49 0.1485 0 0 0 # ob
54 1 4 -1.05 9.46904 6.53744 0.0 0 0 0 # ob
55 1 4 -1.05 9.46904 2.44256 0.0 0 0 0 # ob
56 1 5 -0.95 7.746172 0.0 2.28 0 0 0 # oh
57 1 4 -1.05 8.123276 6.20518 2.2305 0 0 0 # ob
58 1 6 -1.1688 8.143996 2.77482 2.2305 0 0 0 # obts
59 1 4 -1.05 8.999214 0.0 6.4935 0 0 0 # ob
60 1 4 -1.05 7.369586 2.04744 6.642 0 0 0 # ob
61 1 4 -1.05 7.369586 6.93256 6.642 0 0 0 # ob
62 1 7 -1.0808 9.092454 4.49 4.362 0 0 0 # ohs
63 1 6 -1.1688 8.714832 1.71518 4.4115 0 0 0 # obts
64 1 4 -1.05 8.694112 7.26482 4.4115 0 0 0 # ob
65 1 4 -1.05 5.249412 0.0 0.1485 0 0 0 # ob
66 1 4 -1.05 6.87904 2.04744 0.0 0 0 0 # ob
67 1 4 -1.05 6.87904 6.93256 0.0 0 0 0 # ob
68 1 7 -1.0808 10.336172 4.49 2.28 0 0 0 # ohs
69 1 4 -1.05 5.533276 1.71518 2.2305 0 0 0 # ob
70 1 6 -1.1688 5.553996 7.26482 2.2305 0 0 0 # obts
71 1 4 -1.05 6.409214 4.49 6.4935 0 0 0 # ob
72 1 4 -1.05 9.959586 6.53744 6.642 0 0 0 # ob
73 1 4 -1.05 9.959586 2.44256 6.642 0 0 0 # ob
74 1 5 -0.95 6.502454 0.0 4.362 0 0 0 # oh
75 1 6 -1.1688 6.124832 6.20518 4.4115 0 0 0 # obts
76 1 4 -1.05 6.104112 2.77482 4.4115 0 0 0 # ob
77 1 8 0.4245 10.336 4.49 1.32 0 0 0 # ho
78 1 8 0.4245 9.09 4.49 5.322 0 0 0 # ho
79 1 8 0.4245 7.746 0.0 1.32 0 0 0 # ho
80 1 8 0.4245 6.50245 0.0 5.322 0 0 0 # ho
81 1 1 1.575 14.894054 2.99034 3.321 0 0 0 # ao
82 1 1 1.575 14.894054 5.98966 3.321 0 0 0 # ao
83 1 1 1.575 12.304054 7.48034 3.321 0 0 0 # ao
84 1 1 1.575 12.304054 1.49966 3.321 0 0 0 # ao
85 1 3 2.1 13.254584 2.95442 0.645 0 0 0 # st
86 1 3 2.1 13.254584 6.02558 0.645 0 0 0 # st
87 1 3 2.1 13.944042 7.44442 5.9985 0 0 0 # st
88 1 3 2.1 13.944042 1.53558 5.9985 0 0 0 # st
89 1 3 2.1 10.664584 7.44442 0.645 0 0 0 # st
90 1 3 2.1 10.664584 1.53558 0.645 0 0 0 # st
91 1 3 2.1 11.354042 2.95442 5.9985 0 0 0 # st
92 1 3 2.1 11.354042 6.02558 5.9985 0 0 0 # st
93 1 4 -1.05 13.019412 4.49 0.1485 0 0 0 # ob
94 1 4 -1.05 14.64904 6.53744 0.0 0 0 0 # ob
95 1 4 -1.05 14.64904 2.44256 0.0 0 0 0 # ob
96 1 5 -0.95 12.926172 0.0 2.28 0 0 0 # oh
97 1 4 -1.05 13.303276 6.20518 2.2305 0 0 0 # ob
98 1 4 -1.05 13.323996 2.77482 2.2305 0 0 0 # ob
99 1 4 -1.05 14.179214 0.0 6.4935 0 0 0 # ob
100 1 4 -1.05 12.549586 2.04744 6.642 0 0 0 # ob
101 1 4 -1.05 12.549586 6.93256 6.642 0 0 0 # ob
102 1 5 -0.95 14.272454 4.49 4.362 0 0 0 # oh
103 1 4 -1.05 13.894832 1.71518 4.4115 0 0 0 # ob
104 1 4 -1.05 13.874112 7.26482 4.4115 0 0 0 # ob
105 1 4 -1.05 10.429412 0.0 0.1485 0 0 0 # ob
106 1 4 -1.05 12.05904 2.04744 0.0 0 0 0 # ob
107 1 4 -1.05 12.05904 6.93256 0.0 0 0 0 # ob
108 1 5 -0.95 15.516172 4.49 2.28 0 0 0 # oh
109 1 6 -1.1688 10.713276 1.71518 2.2305 0 0 0 # obts
110 1 4 -1.05 10.733996 7.26482 2.2305 0 0 0 # ob
111 1 4 -1.05 11.589214 4.49 6.4935 0 0 0 # ob
112 1 4 -1.05 15.139586 6.53744 6.642 0 0 0 # ob
113 1 4 -1.05 15.139586 2.44256 6.642 0 0 0 # ob
114 1 5 -0.95 11.682454 0.0 4.362 0 0 0 # oh
115 1 4 -1.05 11.304832 6.20518 4.4115 0 0 0 # ob
116 1 6 -1.1688 11.284112 2.77482 4.4115 0 0 0 # obts
117 1 8 0.4245 15.516 4.49 1.32 0 0 0 # ho
118 1 8 0.4245 14.27 4.49 5.322 0 0 0 # ho
119 1 8 0.4245 12.926 0.0 1.32 0 0 0 # ho
120 1 8 0.4245 11.68245 0.0 5.322 0 0 0 # ho
121 1 1 1.575 20.074054 2.99034 3.321 0 0 0 # ao
122 1 2 1.36 20.074054 5.98966 3.321 0 0 0 # mgo
123 1 1 1.575 17.484054 7.48034 3.321 0 0 0 # ao
124 1 1 1.575 17.484054 1.49966 3.321 0 0 0 # ao
125 1 3 2.1 18.434584 2.95442 0.645 0 0 0 # st
126 1 3 2.1 18.434584 6.02558 0.645 0 0 0 # st
127 1 3 2.1 19.124042 7.44442 5.9985 0 0 0 # st
128 1 3 2.1 19.124042 1.53558 5.9985 0 0 0 # st
129 1 3 2.1 15.844584 7.44442 0.645 0 0 0 # st
130 1 3 2.1 15.844584 1.53558 0.645 0 0 0 # st
131 1 3 2.1 16.534042 2.95442 5.9985 0 0 0 # st
132 1 3 2.1 16.534042 6.02558 5.9985 0 0 0 # st
133 1 4 -1.05 18.199412 4.49 0.1485 0 0 0 # ob
134 1 4 -1.05 19.82904 6.53744 0.0 0 0 0 # ob
135 1 4 -1.05 19.82904 2.44256 0.0 0 0 0 # ob
136 1 5 -0.95 18.106172 0.0 2.28 0 0 0 # oh
137 1 6 -1.1688 18.483276 6.20518 2.2305 0 0 0 # obts
138 1 4 -1.05 18.503996 2.77482 2.2305 0 0 0 # ob
139 1 4 -1.05 19.359214 0.0 6.4935 0 0 0 # ob
140 1 4 -1.05 17.729586 2.04744 6.642 0 0 0 # ob
141 1 4 -1.05 17.729586 6.93256 6.642 0 0 0 # ob
142 1 7 -1.0808 19.452454 4.49 4.362 0 0 0 # ohs
143 1 4 -1.05 19.074832 1.71518 4.4115 0 0 0 # ob
144 1 6 -1.1688 19.054112 7.26482 4.4115 0 0 0 # obts
145 1 4 -1.05 15.609412 0.0 0.1485 0 0 0 # ob
146 1 4 -1.05 17.23904 2.04744 0.0 0 0 0 # ob
147 1 4 -1.05 17.23904 6.93256 0.0 0 0 0 # ob
148 1 7 -1.0808 20.696172 4.49 2.28 0 0 0 # ohs
149 1 4 -1.05 15.893276 1.71518 2.2305 0 0 0 # ob
150 1 4 -1.05 15.913996 7.26482 2.2305 0 0 0 # ob
151 1 4 -1.05 16.769214 4.49 6.4935 0 0 0 # ob
152 1 4 -1.05 20.319586 6.53744 6.642 0 0 0 # ob
153 1 4 -1.05 20.319586 2.44256 6.642 0 0 0 # ob
154 1 5 -0.95 16.862454 0.0 4.362 0 0 0 # oh
155 1 4 -1.05 16.484832 6.20518 4.4115 0 0 0 # ob
156 1 4 -1.05 16.464112 2.77482 4.4115 0 0 0 # ob
157 1 8 0.4245 20.696 4.49 1.32 0 0 0 # ho
158 1 8 0.4245 19.45 4.49 5.322 0 0 0 # ho
159 1 8 0.4245 18.106 0.0 1.32 0 0 0 # ho
160 1 8 0.4245 16.86245 0.0 5.322 0 0 0 # ho
161 1 2 1.36 25.254054 2.99034 3.321 0 0 0 # mgo
162 1 1 1.575 25.254054 5.98966 3.321 0 0 0 # ao
163 1 1 1.575 22.664054 7.48034 3.321 0 0 0 # ao
164 1 1 1.575 22.664054 1.49966 3.321 0 0 0 # ao
165 1 3 2.1 23.614584 2.95442 0.645 0 0 0 # st
166 1 3 2.1 23.614584 6.02558 0.645 0 0 0 # st
167 1 3 2.1 24.304042 7.44442 5.9985 0 0 0 # st
168 1 3 2.1 24.304042 1.53558 5.9985 0 0 0 # st
169 1 3 2.1 21.024584 7.44442 0.645 0 0 0 # st
170 1 3 2.1 21.024584 1.53558 0.645 0 0 0 # st
171 1 3 2.1 21.714042 2.95442 5.9985 0 0 0 # st
172 1 3 2.1 21.714042 6.02558 5.9985 0 0 0 # st
173 1 4 -1.05 23.379412 4.49 0.1485 0 0 0 # ob
174 1 4 -1.05 25.00904 6.53744 0.0 0 0 0 # ob
175 1 4 -1.05 25.00904 2.44256 0.0 0 0 0 # ob
176 1 5 -0.95 23.286172 0.0 2.28 0 0 0 # oh
177 1 4 -1.05 23.663276 6.20518 2.2305 0 0 0 # ob
178 1 6 -1.1688 23.683996 2.77482 2.2305 0 0 0 # obts
179 1 4 -1.05 24.539214 0.0 6.4935 0 0 0 # ob
180 1 4 -1.05 22.909586 2.04744 6.642 0 0 0 # ob
181 1 4 -1.05 22.909586 6.93256 6.642 0 0 0 # ob
182 1 7 -1.0808 24.632454 4.49 4.362 0 0 0 # ohs
183 1 6 -1.1688 24.254832 1.71518 4.4115 0 0 0 # obts
184 1 4 -1.05 24.234112 7.26482 4.4115 0 0 0 # ob
185 1 4 -1.05 20.789412 0.0 0.1485 0 0 0 # ob
186 1 4 -1.05 22.41904 2.04744 0.0 0 0 0 # ob
187 1 4 -1.05 22.41904 6.93256 0.0 0 0 0 # ob
188 1 7 -1.0808 25.876172 4.49 2.28 0 0 0 # ohs
189 1 4 -1.05 21.073276 1.71518 2.2305 0 0 0 # ob
190 1 6 -1.1688 21.093996 7.26482 2.2305 0 0 0 # obts
191 1 4 -1.05 21.949214 4.49 6.4935 0 0 0 # ob
192 1 4 -1.05 25.499586 6.53744 6.642 0 0 0 # ob
193 1 4 -1.05 25.499586 2.44256 6.642 0 0 0 # ob
194 1 5 -0.95 22.042454 0.0 4.362 0 0 0 # oh
195 1 6 -1.1688 21.664832 6.20518 4.4115 0 0 0 # obts
196 1 4 -1.05 21.644112 2.77482 4.4115 0 0 0 # ob
197 1 8 0.4245 25.876 4.49 1.32 0 0 0 # ho
198 1 8 0.4245 24.63 4.49 5.322 0 0 0 # ho
199 1 8 0.4245 23.286 0.0 1.32 0 0 0 # ho
200 1 8 0.4245 22.04245 0.0 5.322 0 0 0 # ho
201 1 1 1.575 30.434054 2.99034 3.321 0 0 0 # ao
202 1 1 1.575 30.434054 5.98966 3.321 0 0 0 # ao
203 1 1 1.575 27.844054 7.48034 3.321 0 0 0 # ao
204 1 1 1.575 27.844054 1.49966 3.321 0 0 0 # ao
205 1 3 2.1 28.794584 2.95442 0.645 0 0 0 # st
206 1 3 2.1 28.794584 6.02558 0.645 0 0 0 # st
207 1 3 2.1 29.484042 7.44442 5.9985 0 0 0 # st
208 1 3 2.1 29.484042 1.53558 5.9985 0 0 0 # st
209 1 3 2.1 26.204584 7.44442 0.645 0 0 0 # st
210 1 3 2.1 26.204584 1.53558 0.645 0 0 0 # st
211 1 3 2.1 26.894042 2.95442 5.9985 0 0 0 # st
212 1 3 2.1 26.894042 6.02558 5.9985 0 0 0 # st
213 1 4 -1.05 28.559412 4.49 0.1485 0 0 0 # ob
214 1 4 -1.05 30.18904 6.53744 0.0 0 0 0 # ob
215 1 4 -1.05 30.18904 2.44256 0.0 0 0 0 # ob
216 1 5 -0.95 28.466172 0.0 2.28 0 0 0 # oh
217 1 4 -1.05 28.843276 6.20518 2.2305 0 0 0 # ob
218 1 4 -1.05 28.863996 2.77482 2.2305 0 0 0 # ob
219 1 4 -1.05 29.719214 0.0 6.4935 0 0 0 # ob
220 1 4 -1.05 28.089586 2.04744 6.642 0 0 0 # ob
221 1 4 -1.05 28.089586 6.93256 6.642 0 0 0 # ob
222 1 5 -0.95 29.812454 4.49 4.362 0 0 0 # oh
223 1 4 -1.05 29.434832 1.71518 4.4115 0 0 0 # ob
224 1 4 -1.05 29.414112 7.26482 4.4115 0 0 0 # ob
225 1 4 -1.05 25.969412 0.0 0.1485 0 0 0 # ob
226 1 4 -1.05 27.59904 2.04744 0.0 0 0 0 # ob
227 1 4 -1.05 27.59904 6.93256 0.0 0 0 0 # ob
228 1 5 -0.95 31.056172 4.49 2.28 0 0 0 # oh
229 1 6 -1.1688 26.253276 1.71518 2.2305 0 0 0 # obts
230 1 4 -1.05 26.273996 7.26482 2.2305 0 0 0 # ob
231 1 4 -1.05 27.129214 4.49 6.4935 0 0 0 # ob
232 1 4 -1.05 30.679586 6.53744 6.642 0 0 0 # ob
233 1 4 -1.05 30.679586 2.44256 6.642 0 0 0 # ob
234 1 5 -0.95 27.222454 0.0 4.362 0 0 0 # oh
235 1 4 -1.05 26.844832 6.20518 4.4115 0 0 0 # ob
236 1 6 -1.1688 26.824112 2.77482 4.4115 0 0 0 # obts
237 1 8 0.4245 31.056 4.49 1.32 0 0 0 # ho
238 1 8 0.4245 29.81 4.49 5.322 0 0 0 # ho
239 1 8 0.4245 28.466 0.0 1.32 0 0 0 # ho
240 1 8 0.4245 27.22245 0.0 5.322 0 0 0 # ho
241 1 1 1.575 4.534054 11.97034 3.321 0 0 0 # ao
242 1 2 1.36 4.534054 14.96966 3.321 0 0 0 # mgo
243 1 1 1.575 1.944054 16.46034 3.321 0 0 0 # ao
244 1 1 1.575 1.944054 10.47966 3.321 0 0 0 # ao
245 1 3 2.1 2.894584 11.93442 0.645 0 0 0 # st
246 1 3 2.1 2.894584 15.00558 0.645 0 0 0 # st
247 1 3 2.1 3.584042 16.42442 5.9985 0 0 0 # st
248 1 3 2.1 3.584042 10.51558 5.9985 0 0 0 # st
249 1 3 2.1 31.384584 16.42442 0.645 -1 0 0 # st
250 1 3 2.1 31.384584 10.51558 0.645 -1 0 0 # st
251 1 3 2.1 0.994042 11.93442 5.9985 0 0 0 # st
252 1 3 2.1 0.994042 15.00558 5.9985 0 0 0 # st
253 1 4 -1.05 2.659412 13.47 0.1485 0 0 0 # ob
254 1 4 -1.05 4.28904 15.51744 0.0 0 0 0 # ob
255 1 4 -1.05 4.28904 11.42256 0.0 0 0 0 # ob
256 1 5 -0.95 2.566172 8.98 2.28 0 0 0 # oh
257 1 6 -1.1688 2.943276 15.18518 2.2305 0 0 0 # obts
258 1 4 -1.05 2.963996 11.75482 2.2305 0 0 0 # ob
259 1 4 -1.05 3.819214 8.98 6.4935 0 0 0 # ob
260 1 4 -1.05 2.189586 11.02744 6.642 0 0 0 # ob
261 1 4 -1.05 2.189586 15.91256 6.642 0 0 0 # ob
262 1 7 -1.0808 3.912454 13.47 4.362 0 0 0 # ohs
263 1 4 -1.05 3.534832 10.69518 4.4115 0 0 0 # ob
264 1 6 -1.1688 3.514112 16.24482 4.4115 0 0 0 # obts
265 1 4 -1.05 31.149412 8.98 0.1485 -1 0 0 # ob
266 1 4 -1.05 1.69904 11.02744 0.0 0 0 0 # ob
267 1 4 -1.05 1.69904 15.91256 0.0 0 0 0 # ob
268 1 7 -1.0808 5.156172 13.47 2.28 0 0 0 # ohs
269 1 4 -1.05 31.433276 10.69518 2.2305 -1 0 0 # ob
270 1 4 -1.05 31.453996 16.24482 2.2305 -1 0 0 # ob
271 1 4 -1.05 1.229214 13.47 6.4935 0 0 0 # ob
272 1 4 -1.05 4.779586 15.51744 6.642 0 0 0 # ob
273 1 4 -1.05 4.779586 11.42256 6.642 0 0 0 # ob
274 1 5 -0.95 1.322454 8.98 4.362 0 0 0 # oh
275 1 4 -1.05 0.944832 15.18518 4.4115 0 0 0 # ob
276 1 4 -1.05 0.924112 11.75482 4.4115 0 0 0 # ob
277 1 8 0.4245 5.156 13.47 1.32 0 0 0 # ho
278 1 8 0.4245 3.91 13.47 5.322 0 0 0 # ho
279 1 8 0.4245 2.566 8.98 1.32 0 0 0 # ho
280 1 8 0.4245 1.32245 8.98 5.322 0 0 0 # ho
281 1 2 1.36 9.714054 11.97034 3.321 0 0 0 # mgo
282 1 1 1.575 9.714054 14.96966 3.321 0 0 0 # ao
283 1 1 1.575 7.124054 16.46034 3.321 0 0 0 # ao
284 1 1 1.575 7.124054 10.47966 3.321 0 0 0 # ao
285 1 3 2.1 8.074584 11.93442 0.645 0 0 0 # st
286 1 3 2.1 8.074584 15.00558 0.645 0 0 0 # st
287 1 3 2.1 8.764042 16.42442 5.9985 0 0 0 # st
288 1 3 2.1 8.764042 10.51558 5.9985 0 0 0 # st
289 1 3 2.1 5.484584 16.42442 0.645 0 0 0 # st
290 1 3 2.1 5.484584 10.51558 0.645 0 0 0 # st
291 1 3 2.1 6.174042 11.93442 5.9985 0 0 0 # st
292 1 3 2.1 6.174042 15.00558 5.9985 0 0 0 # st
293 1 4 -1.05 7.839412 13.47 0.1485 0 0 0 # ob
294 1 4 -1.05 9.46904 15.51744 0.0 0 0 0 # ob
295 1 4 -1.05 9.46904 11.42256 0.0 0 0 0 # ob
296 1 5 -0.95 7.746172 8.98 2.28 0 0 0 # oh
297 1 4 -1.05 8.123276 15.18518 2.2305 0 0 0 # ob
298 1 6 -1.1688 8.143996 11.75482 2.2305 0 0 0 # obts
299 1 4 -1.05 8.999214 8.98 6.4935 0 0 0 # ob
300 1 4 -1.05 7.369586 11.02744 6.642 0 0 0 # ob
301 1 4 -1.05 7.369586 15.91256 6.642 0 0 0 # ob
302 1 7 -1.0808 9.092454 13.47 4.362 0 0 0 # ohs
303 1 6 -1.1688 8.714832 10.69518 4.4115 0 0 0 # obts
304 1 4 -1.05 8.694112 16.24482 4.4115 0 0 0 # ob
305 1 4 -1.05 5.249412 8.98 0.1485 0 0 0 # ob
306 1 4 -1.05 6.87904 11.02744 0.0 0 0 0 # ob
307 1 4 -1.05 6.87904 15.91256 0.0 0 0 0 # ob
308 1 7 -1.0808 10.336172 13.47 2.28 0 0 0 # ohs
309 1 4 -1.05 5.533276 10.69518 2.2305 0 0 0 # ob
310 1 6 -1.1688 5.553996 16.24482 2.2305 0 0 0 # obts
311 1 4 -1.05 6.409214 13.47 6.4935 0 0 0 # ob
312 1 4 -1.05 9.959586 15.51744 6.642 0 0 0 # ob
313 1 4 -1.05 9.959586 11.42256 6.642 0 0 0 # ob
314 1 5 -0.95 6.502454 8.98 4.362 0 0 0 # oh
315 1 6 -1.1688 6.124832 15.18518 4.4115 0 0 0 # obts
316 1 4 -1.05 6.104112 11.75482 4.4115 0 0 0 # ob
317 1 8 0.4245 10.336 13.47 1.32 0 0 0 # ho
318 1 8 0.4245 9.09 13.47 5.322 0 0 0 # ho
319 1 8 0.4245 7.746 8.98 1.32 0 0 0 # ho
320 1 8 0.4245 6.50245 8.98 5.322 0 0 0 # ho
321 1 1 1.575 14.894054 11.97034 3.321 0 0 0 # ao
322 1 1 1.575 14.894054 14.96966 3.321 0 0 0 # ao
323 1 1 1.575 12.304054 16.46034 3.321 0 0 0 # ao
324 1 1 1.575 12.304054 10.47966 3.321 0 0 0 # ao
325 1 3 2.1 13.254584 11.93442 0.645 0 0 0 # st
326 1 3 2.1 13.254584 15.00558 0.645 0 0 0 # st
327 1 3 2.1 13.944042 16.42442 5.9985 0 0 0 # st
328 1 3 2.1 13.944042 10.51558 5.9985 0 0 0 # st
329 1 3 2.1 10.664584 16.42442 0.645 0 0 0 # st
330 1 3 2.1 10.664584 10.51558 0.645 0 0 0 # st
331 1 3 2.1 11.354042 11.93442 5.9985 0 0 0 # st
332 1 3 2.1 11.354042 15.00558 5.9985 0 0 0 # st
333 1 4 -1.05 13.019412 13.47 0.1485 0 0 0 # ob
334 1 4 -1.05 14.64904 15.51744 0.0 0 0 0 # ob
335 1 4 -1.05 14.64904 11.42256 0.0 0 0 0 # ob
336 1 5 -0.95 12.926172 8.98 2.28 0 0 0 # oh
337 1 4 -1.05 13.303276 15.18518 2.2305 0 0 0 # ob
338 1 4 -1.05 13.323996 11.75482 2.2305 0 0 0 # ob
339 1 4 -1.05 14.179214 8.98 6.4935 0 0 0 # ob
340 1 4 -1.05 12.549586 11.02744 6.642 0 0 0 # ob
341 1 4 -1.05 12.549586 15.91256 6.642 0 0 0 # ob
342 1 5 -0.95 14.272454 13.47 4.362 0 0 0 # oh
343 1 4 -1.05 13.894832 10.69518 4.4115 0 0 0 # ob
344 1 4 -1.05 13.874112 16.24482 4.4115 0 0 0 # ob
345 1 4 -1.05 10.429412 8.98 0.1485 0 0 0 # ob
346 1 4 -1.05 12.05904 11.02744 0.0 0 0 0 # ob
347 1 4 -1.05 12.05904 15.91256 0.0 0 0 0 # ob
348 1 5 -0.95 15.516172 13.47 2.28 0 0 0 # oh
349 1 6 -1.1688 10.713276 10.69518 2.2305 0 0 0 # obts
350 1 4 -1.05 10.733996 16.24482 2.2305 0 0 0 # ob
351 1 4 -1.05 11.589214 13.47 6.4935 0 0 0 # ob
352 1 4 -1.05 15.139586 15.51744 6.642 0 0 0 # ob
353 1 4 -1.05 15.139586 11.42256 6.642 0 0 0 # ob
354 1 5 -0.95 11.682454 8.98 4.362 0 0 0 # oh
355 1 4 -1.05 11.304832 15.18518 4.4115 0 0 0 # ob
356 1 6 -1.1688 11.284112 11.75482 4.4115 0 0 0 # obts
357 1 8 0.4245 15.516 13.47 1.32 0 0 0 # ho
358 1 8 0.4245 14.27 13.47 5.322 0 0 0 # ho
359 1 8 0.4245 12.926 8.98 1.32 0 0 0 # ho
360 1 8 0.4245 11.68245 8.98 5.322 0 0 0 # ho
361 1 1 1.575 20.074054 11.97034 3.321 0 0 0 # ao
362 1 2 1.36 20.074054 14.96966 3.321 0 0 0 # mgo
363 1 1 1.575 17.484054 16.46034 3.321 0 0 0 # ao
364 1 1 1.575 17.484054 10.47966 3.321 0 0 0 # ao
365 1 3 2.1 18.434584 11.93442 0.645 0 0 0 # st
366 1 3 2.1 18.434584 15.00558 0.645 0 0 0 # st
367 1 3 2.1 19.124042 16.42442 5.9985 0 0 0 # st
368 1 3 2.1 19.124042 10.51558 5.9985 0 0 0 # st
369 1 3 2.1 15.844584 16.42442 0.645 0 0 0 # st
370 1 3 2.1 15.844584 10.51558 0.645 0 0 0 # st
371 1 3 2.1 16.534042 11.93442 5.9985 0 0 0 # st
372 1 3 2.1 16.534042 15.00558 5.9985 0 0 0 # st
373 1 4 -1.05 18.199412 13.47 0.1485 0 0 0 # ob
374 1 4 -1.05 19.82904 15.51744 0.0 0 0 0 # ob
375 1 4 -1.05 19.82904 11.42256 0.0 0 0 0 # ob
376 1 5 -0.95 18.106172 8.98 2.28 0 0 0 # oh
377 1 6 -1.1688 18.483276 15.18518 2.2305 0 0 0 # obts
378 1 4 -1.05 18.503996 11.75482 2.2305 0 0 0 # ob
379 1 4 -1.05 19.359214 8.98 6.4935 0 0 0 # ob
380 1 4 -1.05 17.729586 11.02744 6.642 0 0 0 # ob
381 1 4 -1.05 17.729586 15.91256 6.642 0 0 0 # ob
382 1 7 -1.0808 19.452454 13.47 4.362 0 0 0 # ohs
383 1 4 -1.05 19.074832 10.69518 4.4115 0 0 0 # ob
384 1 6 -1.1688 19.054112 16.24482 4.4115 0 0 0 # obts
385 1 4 -1.05 15.609412 8.98 0.1485 0 0 0 # ob
386 1 4 -1.05 17.23904 11.02744 0.0 0 0 0 # ob
387 1 4 -1.05 17.23904 15.91256 0.0 0 0 0 # ob
388 1 7 -1.0808 20.696172 13.47 2.28 0 0 0 # ohs
389 1 4 -1.05 15.893276 10.69518 2.2305 0 0 0 # ob
390 1 4 -1.05 15.913996 16.24482 2.2305 0 0 0 # ob
391 1 4 -1.05 16.769214 13.47 6.4935 0 0 0 # ob
392 1 4 -1.05 20.319586 15.51744 6.642 0 0 0 # ob
393 1 4 -1.05 20.319586 11.42256 6.642 0 0 0 # ob
394 1 5 -0.95 16.862454 8.98 4.362 0 0 0 # oh
395 1 4 -1.05 16.484832 15.18518 4.4115 0 0 0 # ob
396 1 4 -1.05 16.464112 11.75482 4.4115 0 0 0 # ob
397 1 8 0.4245 20.696 13.47 1.32 0 0 0 # ho
398 1 8 0.4245 19.45 13.47 5.322 0 0 0 # ho
399 1 8 0.4245 18.106 8.98 1.32 0 0 0 # ho
400 1 8 0.4245 16.86245 8.98 5.322 0 0 0 # ho
401 1 2 1.36 25.254054 11.97034 3.321 0 0 0 # mgo
402 1 1 1.575 25.254054 14.96966 3.321 0 0 0 # ao
403 1 1 1.575 22.664054 16.46034 3.321 0 0 0 # ao
404 1 1 1.575 22.664054 10.47966 3.321 0 0 0 # ao
405 1 3 2.1 23.614584 11.93442 0.645 0 0 0 # st
406 1 3 2.1 23.614584 15.00558 0.645 0 0 0 # st
407 1 3 2.1 24.304042 16.42442 5.9985 0 0 0 # st
408 1 3 2.1 24.304042 10.51558 5.9985 0 0 0 # st
409 1 3 2.1 21.024584 16.42442 0.645 0 0 0 # st
410 1 3 2.1 21.024584 10.51558 0.645 0 0 0 # st
411 1 3 2.1 21.714042 11.93442 5.9985 0 0 0 # st
412 1 3 2.1 21.714042 15.00558 5.9985 0 0 0 # st
413 1 4 -1.05 23.379412 13.47 0.1485 0 0 0 # ob
414 1 4 -1.05 25.00904 15.51744 0.0 0 0 0 # ob
415 1 4 -1.05 25.00904 11.42256 0.0 0 0 0 # ob
416 1 5 -0.95 23.286172 8.98 2.28 0 0 0 # oh
417 1 4 -1.05 23.663276 15.18518 2.2305 0 0 0 # ob
418 1 6 -1.1688 23.683996 11.75482 2.2305 0 0 0 # obts
419 1 4 -1.05 24.539214 8.98 6.4935 0 0 0 # ob
420 1 4 -1.05 22.909586 11.02744 6.642 0 0 0 # ob
421 1 4 -1.05 22.909586 15.91256 6.642 0 0 0 # ob
422 1 7 -1.0808 24.632454 13.47 4.362 0 0 0 # ohs
423 1 6 -1.1688 24.254832 10.69518 4.4115 0 0 0 # obts
424 1 4 -1.05 24.234112 16.24482 4.4115 0 0 0 # ob
425 1 4 -1.05 20.789412 8.98 0.1485 0 0 0 # ob
426 1 4 -1.05 22.41904 11.02744 0.0 0 0 0 # ob
427 1 4 -1.05 22.41904 15.91256 0.0 0 0 0 # ob
428 1 7 -1.0808 25.876172 13.47 2.28 0 0 0 # ohs
429 1 4 -1.05 21.073276 10.69518 2.2305 0 0 0 # ob
430 1 6 -1.1688 21.093996 16.24482 2.2305 0 0 0 # obts
431 1 4 -1.05 21.949214 13.47 6.4935 0 0 0 # ob
432 1 4 -1.05 25.499586 15.51744 6.642 0 0 0 # ob
433 1 4 -1.05 25.499586 11.42256 6.642 0 0 0 # ob
434 1 5 -0.95 22.042454 8.98 4.362 0 0 0 # oh
435 1 6 -1.1688 21.664832 15.18518 4.4115 0 0 0 # obts
436 1 4 -1.05 21.644112 11.75482 4.4115 0 0 0 # ob
437 1 8 0.4245 25.876 13.47 1.32 0 0 0 # ho
438 1 8 0.4245 24.63 13.47 5.322 0 0 0 # ho
439 1 8 0.4245 23.286 8.98 1.32 0 0 0 # ho
440 1 8 0.4245 22.04245 8.98 5.322 0 0 0 # ho
441 1 1 1.575 30.434054 11.97034 3.321 0 0 0 # ao
442 1 1 1.575 30.434054 14.96966 3.321 0 0 0 # ao
443 1 1 1.575 27.844054 16.46034 3.321 0 0 0 # ao
444 1 1 1.575 27.844054 10.47966 3.321 0 0 0 # ao
445 1 3 2.1 28.794584 11.93442 0.645 0 0 0 # st
446 1 3 2.1 28.794584 15.00558 0.645 0 0 0 # st
447 1 3 2.1 29.484042 16.42442 5.9985 0 0 0 # st
448 1 3 2.1 29.484042 10.51558 5.9985 0 0 0 # st
449 1 3 2.1 26.204584 16.42442 0.645 0 0 0 # st
450 1 3 2.1 26.204584 10.51558 0.645 0 0 0 # st
451 1 3 2.1 26.894042 11.93442 5.9985 0 0 0 # st
452 1 3 2.1 26.894042 15.00558 5.9985 0 0 0 # st
453 1 4 -1.05 28.559412 13.47 0.1485 0 0 0 # ob
454 1 4 -1.05 30.18904 15.51744 0.0 0 0 0 # ob
455 1 4 -1.05 30.18904 11.42256 0.0 0 0 0 # ob
456 1 5 -0.95 28.466172 8.98 2.28 0 0 0 # oh
457 1 4 -1.05 28.843276 15.18518 2.2305 0 0 0 # ob
458 1 4 -1.05 28.863996 11.75482 2.2305 0 0 0 # ob
459 1 4 -1.05 29.719214 8.98 6.4935 0 0 0 # ob
460 1 4 -1.05 28.089586 11.02744 6.642 0 0 0 # ob
461 1 4 -1.05 28.089586 15.91256 6.642 0 0 0 # ob
462 1 5 -0.95 29.812454 13.47 4.362 0 0 0 # oh
463 1 4 -1.05 29.434832 10.69518 4.4115 0 0 0 # ob
464 1 4 -1.05 29.414112 16.24482 4.4115 0 0 0 # ob
465 1 4 -1.05 25.969412 8.98 0.1485 0 0 0 # ob
466 1 4 -1.05 27.59904 11.02744 0.0 0 0 0 # ob
467 1 4 -1.05 27.59904 15.91256 0.0 0 0 0 # ob
468 1 5 -0.95 31.056172 13.47 2.28 0 0 0 # oh
469 1 6 -1.1688 26.253276 10.69518 2.2305 0 0 0 # obts
470 1 4 -1.05 26.273996 16.24482 2.2305 0 0 0 # ob
471 1 4 -1.05 27.129214 13.47 6.4935 0 0 0 # ob
472 1 4 -1.05 30.679586 15.51744 6.642 0 0 0 # ob
473 1 4 -1.05 30.679586 11.42256 6.642 0 0 0 # ob
474 1 5 -0.95 27.222454 8.98 4.362 0 0 0 # oh
475 1 4 -1.05 26.844832 15.18518 4.4115 0 0 0 # ob
476 1 6 -1.1688 26.824112 11.75482 4.4115 0 0 0 # obts
477 1 8 0.4245 31.056 13.47 1.32 0 0 0 # ho
478 1 8 0.4245 29.81 13.47 5.322 0 0 0 # ho
479 1 8 0.4245 28.466 8.98 1.32 0 0 0 # ho
480 1 8 0.4245 27.22245 8.98 5.322 0 0 0 # ho
481 1 1 1.575 4.534054 20.95034 3.321 0 0 0 # ao
482 1 2 1.36 4.534054 23.94966 3.321 0 0 0 # mgo
483 1 1 1.575 1.944054 -1.49966 3.321 0 1 0 # ao
484 1 1 1.575 1.944054 19.45966 3.321 0 0 0 # ao
485 1 3 2.1 2.894584 20.91442 0.645 0 0 0 # st
486 1 3 2.1 2.894584 23.98558 0.645 0 0 0 # st
487 1 3 2.1 3.584042 -1.53558 5.9985 0 1 0 # st
488 1 3 2.1 3.584042 19.49558 5.9985 0 0 0 # st
489 1 3 2.1 31.384584 -1.53558 0.645 -1 1 0 # st
490 1 3 2.1 31.384584 19.49558 0.645 -1 0 0 # st
491 1 3 2.1 0.994042 20.91442 5.9985 0 0 0 # st
492 1 3 2.1 0.994042 23.98558 5.9985 0 0 0 # st
493 1 4 -1.05 2.659412 22.45 0.1485 0 0 0 # ob
494 1 4 -1.05 4.28904 24.49744 0.0 0 0 0 # ob
495 1 4 -1.05 4.28904 20.40256 0.0 0 0 0 # ob
496 1 5 -0.95 2.566172 17.96 2.28 0 0 0 # oh
497 1 6 -1.1688 2.943276 24.16518 2.2305 0 0 0 # obts
498 1 4 -1.05 2.963996 20.73482 2.2305 0 0 0 # ob
499 1 4 -1.05 3.819214 17.96 6.4935 0 0 0 # ob
500 1 4 -1.05 2.189586 20.00744 6.642 0 0 0 # ob
501 1 4 -1.05 2.189586 24.89256 6.642 0 0 0 # ob
502 1 7 -1.0808 3.912454 22.45 4.362 0 0 0 # ohs
503 1 4 -1.05 3.534832 19.67518 4.4115 0 0 0 # ob
504 1 6 -1.1688 3.514112 -1.71518 4.4115 0 1 0 # obts
505 1 4 -1.05 31.149412 17.96 0.1485 -1 0 0 # ob
506 1 4 -1.05 1.69904 20.00744 0.0 0 0 0 # ob
507 1 4 -1.05 1.69904 24.89256 0.0 0 0 0 # ob
508 1 7 -1.0808 5.156172 22.45 2.28 0 0 0 # ohs
509 1 4 -1.05 31.433276 19.67518 2.2305 -1 0 0 # ob
510 1 4 -1.05 31.453996 -1.71518 2.2305 -1 1 0 # ob
511 1 4 -1.05 1.229214 22.45 6.4935 0 0 0 # ob
512 1 4 -1.05 4.779586 24.49744 6.642 0 0 0 # ob
513 1 4 -1.05 4.779586 20.40256 6.642 0 0 0 # ob
514 1 5 -0.95 1.322454 17.96 4.362 0 0 0 # oh
515 1 4 -1.05 0.944832 24.16518 4.4115 0 0 0 # ob
516 1 4 -1.05 0.924112 20.73482 4.4115 0 0 0 # ob
517 1 8 0.4245 5.156 22.45 1.32 0 0 0 # ho
518 1 8 0.4245 3.91 22.45 5.322 0 0 0 # ho
519 1 8 0.4245 2.566 17.96 1.32 0 0 0 # ho
520 1 8 0.4245 1.32245 17.96 5.322 0 0 0 # ho
521 1 2 1.36 9.714054 20.95034 3.321 0 0 0 # mgo
522 1 1 1.575 9.714054 23.94966 3.321 0 0 0 # ao
523 1 1 1.575 7.124054 -1.49966 3.321 0 1 0 # ao
524 1 1 1.575 7.124054 19.45966 3.321 0 0 0 # ao
525 1 3 2.1 8.074584 20.91442 0.645 0 0 0 # st
526 1 3 2.1 8.074584 23.98558 0.645 0 0 0 # st
527 1 3 2.1 8.764042 -1.53558 5.9985 0 1 0 # st
528 1 3 2.1 8.764042 19.49558 5.9985 0 0 0 # st
529 1 3 2.1 5.484584 -1.53558 0.645 0 1 0 # st
530 1 3 2.1 5.484584 19.49558 0.645 0 0 0 # st
531 1 3 2.1 6.174042 20.91442 5.9985 0 0 0 # st
532 1 3 2.1 6.174042 23.98558 5.9985 0 0 0 # st
533 1 4 -1.05 7.839412 22.45 0.1485 0 0 0 # ob
534 1 4 -1.05 9.46904 24.49744 0.0 0 0 0 # ob
535 1 4 -1.05 9.46904 20.40256 0.0 0 0 0 # ob
536 1 5 -0.95 7.746172 17.96 2.28 0 0 0 # oh
537 1 4 -1.05 8.123276 24.16518 2.2305 0 0 0 # ob
538 1 6 -1.1688 8.143996 20.73482 2.2305 0 0 0 # obts
539 1 4 -1.05 8.999214 17.96 6.4935 0 0 0 # ob
540 1 4 -1.05 7.369586 20.00744 6.642 0 0 0 # ob
541 1 4 -1.05 7.369586 24.89256 6.642 0 0 0 # ob
542 1 7 -1.0808 9.092454 22.45 4.362 0 0 0 # ohs
543 1 6 -1.1688 8.714832 19.67518 4.4115 0 0 0 # obts
544 1 4 -1.05 8.694112 -1.71518 4.4115 0 1 0 # ob
545 1 4 -1.05 5.249412 17.96 0.1485 0 0 0 # ob
546 1 4 -1.05 6.87904 20.00744 0.0 0 0 0 # ob
547 1 4 -1.05 6.87904 24.89256 0.0 0 0 0 # ob
548 1 7 -1.0808 10.336172 22.45 2.28 0 0 0 # ohs
549 1 4 -1.05 5.533276 19.67518 2.2305 0 0 0 # ob
550 1 6 -1.1688 5.553996 -1.71518 2.2305 0 1 0 # obts
551 1 4 -1.05 6.409214 22.45 6.4935 0 0 0 # ob
552 1 4 -1.05 9.959586 24.49744 6.642 0 0 0 # ob
553 1 4 -1.05 9.959586 20.40256 6.642 0 0 0 # ob
554 1 5 -0.95 6.502454 17.96 4.362 0 0 0 # oh
555 1 6 -1.1688 6.124832 24.16518 4.4115 0 0 0 # obts
556 1 4 -1.05 6.104112 20.73482 4.4115 0 0 0 # ob
557 1 8 0.4245 10.336 22.45 1.32 0 0 0 # ho
558 1 8 0.4245 9.09 22.45 5.322 0 0 0 # ho
559 1 8 0.4245 7.746 17.96 1.32 0 0 0 # ho
560 1 8 0.4245 6.50245 17.96 5.322 0 0 0 # ho
561 1 1 1.575 14.894054 20.95034 3.321 0 0 0 # ao
562 1 1 1.575 14.894054 23.94966 3.321 0 0 0 # ao
563 1 1 1.575 12.304054 -1.49966 3.321 0 1 0 # ao
564 1 1 1.575 12.304054 19.45966 3.321 0 0 0 # ao
565 1 3 2.1 13.254584 20.91442 0.645 0 0 0 # st
566 1 3 2.1 13.254584 23.98558 0.645 0 0 0 # st
567 1 3 2.1 13.944042 -1.53558 5.9985 0 1 0 # st
568 1 3 2.1 13.944042 19.49558 5.9985 0 0 0 # st
569 1 3 2.1 10.664584 -1.53558 0.645 0 1 0 # st
570 1 3 2.1 10.664584 19.49558 0.645 0 0 0 # st
571 1 3 2.1 11.354042 20.91442 5.9985 0 0 0 # st
572 1 3 2.1 11.354042 23.98558 5.9985 0 0 0 # st
573 1 4 -1.05 13.019412 22.45 0.1485 0 0 0 # ob
574 1 4 -1.05 14.64904 24.49744 0.0 0 0 0 # ob
575 1 4 -1.05 14.64904 20.40256 0.0 0 0 0 # ob
576 1 5 -0.95 12.926172 17.96 2.28 0 0 0 # oh
577 1 4 -1.05 13.303276 24.16518 2.2305 0 0 0 # ob
578 1 4 -1.05 13.323996 20.73482 2.2305 0 0 0 # ob
579 1 4 -1.05 14.179214 17.96 6.4935 0 0 0 # ob
580 1 4 -1.05 12.549586 20.00744 6.642 0 0 0 # ob
581 1 4 -1.05 12.549586 24.89256 6.642 0 0 0 # ob
582 1 5 -0.95 14.272454 22.45 4.362 0 0 0 # oh
583 1 4 -1.05 13.894832 19.67518 4.4115 0 0 0 # ob
584 1 4 -1.05 13.874112 -1.71518 4.4115 0 1 0 # ob
585 1 4 -1.05 10.429412 17.96 0.1485 0 0 0 # ob
586 1 4 -1.05 12.05904 20.00744 0.0 0 0 0 # ob