LAMMPS data file. msi2lmp v3.9.9 / 05 Nov 2018 / CGCMM for Structures\pa6_x25_cvff

    477 atoms
    476 bonds
    900 angles
   1294 dihedrals
     50 impropers

   8 atom types
  11 bond types
  21 angle types
  27 dihedral types
   4 improper types

    53.630935133   102.063624096 xlo xhi
    -8.167435406    23.423941794 ylo yhi
   -88.132901045   -46.302064206 zlo zhi

Masses

   1   1.007970 # hn
   2  12.011150 # c2
   3   1.007970 # h
   4  12.011150 # c'
   5  15.999400 # o'
   6  14.006700 # n2
   7  14.006700 # n
   8  12.011150 # c3

Pair Coeffs # lj/cut/coul/long

   1   0.0000000000   0.0000000000 # hn
   2   0.0389999952   3.8754094636 # c2
   3   0.0380000011   2.4499714540 # h
   4   0.1479999981   3.6170487995 # c'
   5   0.2280000124   2.8597848722 # o'
   6   0.1669999743   3.5012320066 # n2
   7   0.1669999743   3.5012320066 # n
   8   0.0389999952   3.8754094636 # c3

Bond Coeffs # harmonic

   1   457.4592     1.0260 # hn-n2
   2   322.7158     1.5260 # c2-c2
   3   340.6175     1.1050 # c2-h
   4   377.5752     1.4600 # c2-n
   5   283.0924     1.5200 # c2-c'
   6   615.3220     1.2300 # c'-o'
   7   388.0000     1.3200 # c'-n2
   8   483.4512     1.0260 # hn-n
   9   388.0000     1.3200 # c'-n
  10   322.7158     1.5260 # c2-c3
  11   340.6175     1.1050 # h-c3

Angle Coeffs # harmonic

   1    44.4000   110.0000 # c2-c2-h
   2    50.0000   109.5000 # c2-c2-n
   3    39.5000   106.4000 # h-c2-h
   4    51.5000   109.5000 # h-c2-n
   5    46.6000   110.5000 # c2-c2-c2
   6    45.0000   109.5000 # h-c2-c'
   7    46.6000   110.5000 # c2-c2-c'
   8    68.0000   120.0000 # o'-c'-n2
   9    68.0000   120.0000 # c2-c'-o'
  10    53.5000   114.1000 # c2-c'-n2
  11    37.5000   115.0000 # hn-n2-c'
  12    33.0000   125.0000 # hn-n2-hn
  13    68.0000   120.0000 # o'-c'-n
  14    53.5000   114.1000 # c2-c'-n
  15    37.5000   115.0000 # hn-n-c'
  16   111.0000   118.0000 # c2-n-c'
  17    35.0000   122.0000 # hn-n-c2
  18    44.4000   110.0000 # c2-c3-h
  19    39.5000   106.4000 # h-c3-h
  20    46.6000   110.5000 # c2-c2-c3
  21    44.4000   110.0000 # h-c2-c3

Dihedral Coeffs # harmonic

  1     0.1581   1   3 # c2-c2-c2-h
  2     0.1581   1   3 # h-c2-c2-h
  3     0.1581   1   3 # c2-c2-c2-n
  4     0.1581   1   3 # h-c2-c2-n
  5     0.0000   1   0 # c2-c2-n-c'
  6     0.0000   1   0 # c2-c2-n-hn
  7     0.0000   1   0 # h-c2-n-c'
  8     0.0000   1   0 # h-c2-n-hn
  9     0.1581   1   3 # c2-c2-c2-c2
 10     0.1581   1   3 # c2-c2-c2-c'
 11     0.1581   1   3 # h-c2-c2-c'
 12     0.0000   1   0 # h-c2-c'-o'
 13     0.0000   1   0 # h-c2-c'-n2
 14     0.0000   1   0 # c2-c2-c'-o'
 15     0.0000   1   0 # c2-c2-c'-n2
 16     1.5000  -1   2 # o'-c'-n2-hn
 17     1.5000  -1   2 # c2-c'-n2-hn
 18     0.0000   1   0 # h-c2-c'-n
 19     0.0000   1   0 # c2-c2-c'-n
 20     1.8000  -1   2 # o'-c'-n-hn
 21     3.8000  -1   2 # o'-c'-n-c2
 22     1.2000  -1   2 # c2-c'-n-hn
 23     3.2000  -1   2 # c2-c'-n-c2
 24     0.1581   1   3 # c2-c2-c3-h
 25     0.1581   1   3 # h-c2-c3-h
 26     0.1581   1   3 # c2-c2-c2-c3
 27     0.1581   1   3 # h-c2-c2-c3

Improper Coeffs # cvff

    1    10.0000  -1   2 # c2-c'-n2-o'
    2     0.0500  -1   2 # hn-n2-c'-hn
    3    10.0000  -1   2 # c2-c'-n-o'
    4     0.0500  -1   2 # c'-n-c2-hn

Atoms # full

      1      1   1  0.280000    66.403914618    -4.648162452   -59.796550224   0   0   0 # hn
      2      1   2  0.020000    66.906659239    -6.878209025   -54.272550101   0   0   0 # c2
      3      1   3  0.100000    66.287694359    -7.577449044   -54.839484731   0   0   0 # h
      4      1   3  0.100000    67.829230486    -7.370772812   -53.800706467   0   0   0 # h
      5      1   2 -0.200000    67.315190190    -5.763542975   -55.251652516   0   0   0 # c2
      6      1   3  0.100000    66.788629405    -4.848146070   -55.027099746   0   0   0 # h
      7      1   3  0.100000    68.391145603    -5.522994712   -55.064457679   0   0   0 # h
      8      1   2 -0.200000    67.098640217    -5.957484340   -56.764901197   0   0   0 # c2
      9      1   3  0.100000    67.884702626    -6.694829651   -57.004336745   0   0   0 # h
     10      1   3  0.100000    67.477565214    -5.065684930   -57.369573498   0   0   0 # h
     11      1   2 -0.200000    65.660792126    -6.463134025   -57.115337529   0   0   0 # c2
     12      1   3  0.100000    65.693268892    -7.518870969   -57.012038699   0   0   0 # h
     13      1   3  0.100000    64.918770630    -5.993779214   -56.433154863   0   0   0 # h
     14      1   2 -0.200000    65.091383361    -6.196761229   -58.584539416   0   0   0 # c2
     15      1   3  0.100000    64.183827520    -6.840372317   -58.609877479   0   0   0 # h
     16      1   3  0.100000    64.712714633    -5.163308406   -58.648191454   0   0   0 # h
     17      1   4  0.380000    66.117264684    -6.547246328   -59.694728400   0   0   0 # c'
     18      1   5 -0.380000    66.316826750    -7.667435406   -60.128549070   0   0   0 # o'
     19      1   6 -0.560000    66.759212314    -5.521390958   -60.215256269   0   0   0 # n2
     20      1   1  0.280000    67.413665183    -5.579122770   -60.940674525   0   0   0 # hn
     21      2   1  0.280000    65.480083827    -5.396686683   -53.383188961   0   0   0 # hn
     22      2   2  0.020000    62.312077375    -4.881525787   -47.836876790   0   0   0 # c2
     23      2   3  0.100000    61.961822184    -5.276312361   -46.802064206   0   0   0 # h
     24      2   3  0.100000    62.252215501    -3.784429360   -47.590557706   0   0   0 # h
     25      2   2 -0.200000    63.695259862    -5.400269955   -48.207266753   0   0   0 # c2
     26      2   3  0.100000    64.256303386    -5.250081028   -47.298940124   0   0   0 # h
     27      2   3  0.100000    63.767274505    -6.436137702   -48.388476394   0   0   0 # h
     28      2   2 -0.200000    64.404516735    -4.458683241   -49.102777327   0   0   0 # c2
     29      2   3  0.100000    64.715862122    -3.589246785   -48.537898834   0   0   0 # h
     30      2   3  0.100000    63.844499730    -4.014297474   -49.989193751   0   0   0 # h
     31      2   2 -0.200000    65.520249290    -5.054615175   -49.907789263   0   0   0 # c2
     32      2   3  0.100000    66.020945561    -4.082386396   -50.363125675   0   0   0 # h
     33      2   3  0.100000    66.212607481    -5.588660650   -49.223729117   0   0   0 # h
     34      2   2 -0.200000    64.908435268    -5.926622670   -51.132892811   0   0   0 # c2
     35      2   3  0.100000    64.245970059    -6.723196034   -50.814025327   0   0   0 # h
     36      2   3  0.100000    64.285312087    -5.203530914   -51.695686547   0   0   0 # h
     37      2   4  0.380000    65.932266452    -6.639856540   -52.030043786   0   0   0 # c'
     38      2   5 -0.380000    66.652079640    -7.546623407   -51.601563746   0   0   0 # o'
     39      2   7 -0.500000    65.948492939    -6.303130204   -53.254691844   0   0   0 # n
     40      3   1  0.280000    61.774910971    -5.101460505   -49.852883671   0   0   0 # hn
     41      3   2  0.020000    56.275235757    -3.061008097   -53.604383341   0   0   0 # c2
     42      3   3  0.100000    56.134121220    -4.122834720   -53.990265885   0   0   0 # h
     43      3   3  0.100000    55.334240135    -2.921410137   -52.967366503   0   0   0 # h
     44      3   2 -0.200000    57.572539426    -2.818074793   -52.762805068   0   0   0 # c2
     45      3   3  0.100000    58.412104518    -2.572578033   -53.412323210   0   0   0 # h
     46      3   3  0.100000    57.499442358    -1.836201231   -52.125979486   0   0   0 # h
     47      3   2 -0.200000    57.761618510    -4.101297959   -51.889093231   0   0   0 # c2
     48      3   3  0.100000    58.017820832    -5.046374831   -52.510663054   0   0   0 # h
     49      3   3  0.100000    56.765594645    -4.208298869   -51.448006080   0   0   0 # h
     50      3   2 -0.200000    58.832133302    -3.825628873   -50.912287669   0   0   0 # c2
     51      3   3  0.100000    59.678115772    -3.205406819   -51.195125981   0   0   0 # h
     52      3   3  0.100000    58.448828962    -3.085432623   -50.148224993   0   0   0 # h
     53      3   2 -0.200000    59.287092682    -5.163056006   -50.207228918   0   0   0 # c2
     54      3   3  0.100000    58.468819452    -5.871283736   -49.869773793   0   0   0 # h
     55      3   3  0.100000    59.983260258    -5.714916469   -50.864317886   0   0   0 # h
     56      3   4  0.380000    60.078997869    -5.012001426   -48.890178680   0   0   0 # c'
     57      3   5 -0.380000    59.522708200    -4.555150743   -47.903715541   0   0   0 # o'
     58      3   7 -0.500000    61.396152107    -5.262087057   -48.922004194   0   0   0 # n
     59      4   1  0.280000    57.062465237    -1.513577891   -55.149874922   0   0   0 # hn
     60      4   2  0.020000    57.615112577     2.813313396   -57.805799152   0   0   0 # c2
     61      4   3  0.100000    57.838938412     3.021547543   -58.924581259   0   0   0 # h
     62      4   3  0.100000    56.667932103     3.472828350   -57.658997162   0   0   0 # h
     63      4   2 -0.200000    57.464992951     1.268330655   -57.585032380   0   0   0 # c2
     64      4   3  0.100000    58.405806754     0.802636856   -57.932430531   0   0   0 # h
     65      4   3  0.100000    57.437876731     1.123799331   -56.534989844   0   0   0 # h
     66      4   2 -0.200000    56.283994134     0.697362611   -58.441727170   0   0   0 # c2
     67      4   3  0.100000    56.692475005     0.379981406   -59.412249834   0   0   0 # h
     68      4   3  0.100000    55.374804646     1.335435701   -58.488996637   0   0   0 # h
     69      4   2 -0.200000    55.823236383    -0.663502720   -57.727082745   0   0   0 # c2
     70      4   3  0.100000    55.075500396    -1.233828269   -58.361160873   0   0   0 # h
     71      4   3  0.100000    56.709042714    -1.337815153   -57.774385095   0   0   0 # h
     72      4   2 -0.200000    55.346604754    -0.541659647   -56.308933205   0   0   0 # c2
     73      4   3  0.100000    55.932471556     0.291797879   -55.696164230   0   0   0 # h
     74      4   3  0.100000    54.306217517    -0.094944821   -56.342153945   0   0   0 # h
     75      4   4  0.380000    55.199299531    -1.825162012   -55.499948958   0   0   0 # c'
     76      4   5 -0.380000    54.130935133    -2.389613455   -55.377976768   0   0   0 # o'
     77      4   7 -0.500000    56.328735357    -2.177136538   -54.802320094   0   0   0 # n
     78      5   1  0.280000    59.767984474     2.983955925   -56.995659461   0   0   0 # hn
     79      5   2  0.020000    64.895933529     5.953063997   -54.654943567   0   0   0 # c2
     80      5   3  0.100000    64.791844328     6.927873381   -54.047376315   0   0   0 # h
     81      5   3  0.100000    64.990390337     5.013367397   -53.940885163   0   0   0 # h
     82      5   2 -0.200000    63.639952735     5.713862025   -55.540459561   0   0   0 # c2
     83      5   3  0.100000    63.432929052     6.469078535   -56.218612292   0   0   0 # h
     84      5   3  0.100000    63.897270157     4.887312654   -56.178888826   0   0   0 # h
     85      5   2 -0.200000    62.286797199     5.419494091   -54.901682011   0   0   0 # c2
     86      5   3  0.100000    61.860210347     6.293234790   -54.377246532   0   0   0 # h
     87      5   3  0.100000    62.471227796     4.624587630   -54.196636371   0   0   0 # h
     88      5   2 -0.200000    61.262615935     5.094879820   -56.020252919   0   0   0 # c2
     89      5   3  0.100000    61.127007483     5.923153647   -56.771675355   0   0   0 # h
     90      5   3  0.100000    61.569989292     4.336381553   -56.674833093   0   0   0 # h
     91      5   2 -0.200000    59.905233916     4.795117063   -55.280350898   0   0   0 # c2
     92      5   3  0.100000    59.931763338     3.990582508   -54.495913587   0   0   0 # h
     93      5   3  0.100000    59.654021824     5.769453668   -54.822440002   0   0   0 # h
     94      5   4  0.380000    58.711989890     4.550626003   -56.350160968   0   0   0 # c'
     95      5   5 -0.380000    57.849508649     5.437495998   -56.623183437   0   0   0 # o'
     96      5   7 -0.500000    58.770947463     3.359747146   -56.992774333   0   0   0 # n
     97      6   1  0.280000    66.225754426     6.634295358   -56.366682162   0   0   0 # hn
     98      6   2  0.020000    70.799815736     8.651441430   -57.960962701   0   0   0 # c2
     99      6   3  0.100000    71.342001219     8.780752482   -56.992535466   0   0   0 # h
    100      6   3  0.100000    71.455693803     8.962453532   -58.902539605   0   0   0 # h
    101      6   2 -0.200000    70.538430300     7.119077199   -58.113207241   0   0   0 # c2
    102      6   3  0.100000    69.533877758     6.919312436   -58.688871870   0   0   0 # h
    103      6   3  0.100000    71.348956186     6.644118287   -58.747505090   0   0   0 # h
    104      6   2 -0.200000    70.651178707     6.312493602   -56.816754616   0   0   0 # c2
    105      6   3  0.100000    71.523556580     6.663076916   -56.276193778   0   0   0 # h
    106      6   3  0.100000    70.740044985     5.239548569   -57.023868185   0   0   0 # h
    107      6   2 -0.200000    69.383717875     6.425637110   -56.011292409   0   0   0 # c2
    108      6   3  0.100000    69.658065022     6.200531955   -54.954489737   0   0   0 # h
    109      6   3  0.100000    69.058676996     7.526720827   -56.037607086   0   0   0 # h
    110      6   2 -0.200000    68.226416852     5.564307061   -56.449174906   0   0   0 # c2
    111      6   3  0.100000    67.789821062     6.074276080   -57.351074577   0   0   0 # h
    112      6   3  0.100000    68.613645686     4.624988714   -56.814344080   0   0   0 # h
    113      6   4  0.380000    67.116773593     5.178622773   -55.440519829   0   0   0 # c'
    114      6   5 -0.380000    67.237365268     4.195656295   -54.731993295   0   0   0 # o'
    115      6   7 -0.500000    66.081137435     6.009385086   -55.546169784   0   0   0 # n
    116      7   1  0.280000    68.784721464     9.443306728   -57.476768880   0   0   0 # hn
    117      7   2  0.020000    67.292578760    14.394020669   -62.158398885   0   0   0 # c2
    118      7   3  0.100000    67.463668506    15.493277236   -61.975474473   0   0   0 # h
    119      7   3  0.100000    68.279530170    14.153519012   -62.568858377   0   0   0 # h
    120      7   2 -0.200000    67.022376601    13.772382019   -60.753465658   0   0   0 # c2
    121      7   3  0.100000    66.159558942    14.331248751   -60.310585124   0   0   0 # h
    122      7   3  0.100000    66.790549314    12.699963805   -61.026445277   0   0   0 # h
    123      7   2 -0.200000    68.189102640    13.705689521   -59.670351758   0   0   0 # c2
    124      7   3  0.100000    68.256539639    14.724338181   -59.223475259   0   0   0 # h
    125      7   3  0.100000    69.127194532    13.487709430   -60.051342689   0   0   0 # h
    126      7   2 -0.200000    67.876032712    12.646816320   -58.638221036   0   0   0 # c2
    127      7   3  0.100000    68.423336567    12.889141217   -57.651250254   0   0   0 # h
    128      7   3  0.100000    66.912469535    12.844474755   -58.155777717   0   0   0 # h
    129      7   2 -0.200000    67.969173266    11.144981625   -58.930861732   0   0   0 # c2
    130      7   3  0.100000    67.358223087    10.545916649   -58.183785832   0   0   0 # h
    131      7   3  0.100000    67.507107389    10.749768449   -59.878434713   0   0   0 # h
    132      7   4  0.380000    69.444668151    10.521413951   -58.874809175   0   0   0 # c'
    133      7   5 -0.380000    70.296361221    10.980098578   -59.659430446   0   0   0 # o'
    134      7   7 -0.500000    69.634411398     9.547182959   -58.039572861   0   0   0 # n
    135      8   1  0.280000    65.296692999    14.792179570   -62.890737696   0   0   0 # hn
    136      8   2  0.020000    62.990927405    10.075783906   -67.684582197   0   0   0 # c2
    137      8   3  0.100000    62.576086540    10.428480459   -68.663088690   0   0   0 # h
    138      8   3  0.100000    64.093869403    10.140200982   -67.840742193   0   0   0 # h
    139      8   2 -0.200000    62.541292719    10.973475938   -66.494062078   0   0   0 # c2
    140      8   3  0.100000    61.407581094    10.938715743   -66.580994859   0   0   0 # h
    141      8   3  0.100000    62.749047336    10.400578895   -65.618080055   0   0   0 # h
    142      8   2 -0.200000    63.132188980    12.401279612   -66.419985097   0   0   0 # c2
    143      8   3  0.100000    62.390294988    13.205183606   -66.372515681   0   0   0 # h
    144      8   3  0.100000    63.793204128    12.731742486   -67.285999385   0   0   0 # h
    145      8   2 -0.200000    64.155969120    12.487521821   -65.193178095   0   0   0 # c2
    146      8   3  0.100000    63.634776479    12.511463079   -64.210904155   0   0   0 # h
    147      8   3  0.100000    64.879197509    11.683966353   -65.135384047   0   0   0 # h
    148      8   2 -0.200000    65.057971882    13.807564723   -65.156940193   0   0   0 # c2
    149      8   3  0.100000    65.560640572    13.809119636   -66.171070237   0   0   0 # h
    150      8   3  0.100000    64.464796382    14.711084637   -65.020195294   0   0   0 # h
    151      8   4  0.380000    66.195199650    13.608008196   -64.148064124   0   0   0 # c'
    152      8   5 -0.380000    67.182914327    12.872220776   -64.513821411   0   0   0 # o'
    153      8   7 -0.500000    66.145656662    14.176931084   -62.950201640   0   0   0 # n
    154      9   1  0.280000    62.989393718     8.157675040   -66.612330294   0   0   0 # hn
    155      9   2  0.020000    64.642537882     3.007410349   -66.708285485   0   0   0 # c2
    156      9   3  0.100000    64.893864493     3.838363749   -65.980649183   0   0   0 # h
    157      9   3  0.100000    64.188777464     2.251105234   -66.045255808   0   0   0 # h
    158      9   2 -0.200000    63.731011434     3.424697228   -67.881072989   0   0   0 # c2
    159      9   3  0.100000    64.253074444     3.929082715   -68.650042790   0   0   0 # h
    160      9   3  0.100000    63.367002595     2.319579302   -68.187427296   0   0   0 # h
    161      9   2 -0.200000    62.424296779     4.175669829   -67.519409622   0   0   0 # c2
    162      9   3  0.100000    62.084352449     3.914516897   -66.534891019   0   0   0 # h
    163      9   3  0.100000    61.578173876     3.757576522   -68.063441983   0   0   0 # h
    164      9   2 -0.200000    62.689202752     5.664526964   -67.667119717   0   0   0 # c2
    165      9   3  0.100000    63.613169478     6.113217085   -67.157191527   0   0   0 # h
    166      9   3  0.100000    62.967431017     5.884117285   -68.771632665   0   0   0 # h
    167      9   2 -0.200000    61.527158718     6.560418432   -67.367645696   0   0   0 # c2
    168      9   3  0.100000    60.640584565     6.202112780   -67.940206506   0   0   0 # h
    169      9   3  0.100000    61.325562894     6.622973005   -66.282131222   0   0   0 # h
    170      9   4  0.380000    61.593991887     7.996626694   -67.922971429   0   0   0 # c'
    171      9   5 -0.380000    60.827482822     8.378372217   -68.777030125   0   0   0 # o'
    172      9   7 -0.500000    62.586616060     8.684990431   -67.397165141   0   0   0 # n
    173     10   1  0.280000    66.645519635     3.379017914   -67.516143467   0   0   0 # hn
    174     10   2  0.020000    72.336106864     1.453063545   -67.753219906   0   0   0 # c2
    175     10   3  0.100000    71.871583869     0.960400341   -66.830936877   0   0   0 # h
    176     10   3  0.100000    72.812698612     0.624277755   -68.186548494   0   0   0 # h
    177     10   2 -0.200000    71.348607616     1.953696754   -68.794159844   0   0   0 # c2
    178     10   3  0.100000    71.074104905     3.035923670   -68.576810073   0   0   0 # h
    179     10   3  0.100000    71.937911738     1.894368727   -69.755207934   0   0   0 # h
    180     10   2 -0.200000    69.985161273     1.191881599   -69.054791044   0   0   0 # c2
    181     10   3  0.100000    70.190579427     0.156540785   -69.138400504   0   0   0 # h
    182     10   3  0.100000    69.497904155     1.394927000   -70.091331636   0   0   0 # h
    183     10   2 -0.200000    69.003176789     1.463903672   -67.868970639   0   0   0 # c2
    184     10   3  0.100000    69.350798443     0.840296552   -66.970763801   0   0   0 # h
    185     10   3  0.100000    68.950747955     2.500637361   -67.539682821   0   0   0 # h
    186     10   2 -0.200000    67.498642907     1.047495245   -68.348190206   0   0   0 # c2
    187     10   3  0.100000    67.293101871     1.533889621   -69.288913447   0   0   0 # h
    188     10   3  0.100000    67.461073369    -0.028264044   -68.433488282   0   0   0 # h
    189     10   4  0.380000    66.387241193     1.394046177   -67.303473902   0   0   0 # c'
    190     10   5 -0.380000    65.934353668     0.483299994   -66.652890028   0   0   0 # o'
    191     10   7 -0.500000    65.883751415     2.637865783   -67.353306682   0   0   0 # n
    192     11   1  0.280000    74.241092482     2.532240070   -68.079916622   0   0   0 # hn
    193     11   2  0.020000    76.387278541     8.799231744   -67.414687908   0   0   0 # c2
    194     11   3  0.100000    76.153555166     9.046189439   -66.343189021   0   0   0 # h
    195     11   3  0.100000    77.419792013     8.312174962   -67.391404070   0   0   0 # h
    196     11   2 -0.200000    75.311361700     7.905518314   -67.997163991   0   0   0 # c2
    197     11   3  0.100000    74.392163080     8.524277062   -68.188750424   0   0   0 # h
    198     11   3  0.100000    75.571439940     7.451843630   -69.056213770   0   0   0 # h
    199     11   2 -0.200000    75.232454358     6.693791229   -67.137001193   0   0   0 # c2
    200     11   3  0.100000    74.993417520     6.936920533   -66.025575442   0   0   0 # h
    201     11   3  0.100000    76.228159633     6.232441191   -66.983999092   0   0   0 # h
    202     11   2 -0.200000    74.135466195     5.722074531   -67.456906565   0   0   0 # c2
    203     11   3  0.100000    73.183700973     6.218585761   -67.151333895   0   0   0 # h
    204     11   3  0.100000    74.093643411     5.506294448   -68.577223732   0   0   0 # h
    205     11   2 -0.200000    74.463414079     4.508344779   -66.571620644   0   0   0 # c2
    206     11   3  0.100000    75.340411993     3.942535767   -66.930234518   0   0   0 # h
    207     11   3  0.100000    74.539288577     4.655366205   -65.511851738   0   0   0 # h
    208     11   4  0.380000    73.209821780     3.515081806   -66.617236492   0   0   0 # c'
    209     11   5 -0.380000    72.234693125     3.816555394   -65.933462398   0   0   0 # o'
    210     11   7 -0.500000    73.426086231     2.416934976   -67.443623780   0   0   0 # n
    211     12   1  0.280000    75.974212168    10.926064793   -67.863653525   0   0   0 # hn
    212     12   2  0.020000    73.680601241    13.462310437   -71.811040354   0   0   0 # c2
    213     12   3  0.100000    73.653262044    12.369282699   -71.574335704   0   0   0 # h
    214     12   3  0.100000    73.011446447    13.919037508   -71.028141651   0   0   0 # h
    215     12   2 -0.200000    75.071444099    14.049776703   -71.854161922   0   0   0 # c2
    216     12   3  0.100000    75.529242819    13.805603478   -72.817297040   0   0   0 # h
    217     12   3  0.100000    75.106014979    15.152181494   -72.078532491   0   0   0 # h
    218     12   2 -0.200000    76.065117491    13.637473132   -70.808890486   0   0   0 # c2
    219     12   3  0.100000    76.058158114    14.233724399   -69.900123916   0   0   0 # h
    220     12   3  0.100000    77.072661652    13.947972941   -71.200795585   0   0   0 # h
    221     12   2 -0.200000    76.075370288    12.147292634   -70.532001324   0   0   0 # c2
    222     12   3  0.100000    75.142887915    11.916916502   -69.867714096   0   0   0 # h
    223     12   3  0.100000    76.016298998    11.510625980   -71.426367743   0   0   0 # h
    224     12   2 -0.200000    77.303097636    11.759881150   -69.651371864   0   0   0 # c2
    225     12   3  0.100000    78.158250815    11.699250678   -70.385750886   0   0   0 # h
    226     12   3  0.100000    77.571910171    12.517420181   -68.830850687   0   0   0 # h
    227     12   4  0.380000    77.361110200    10.350814191   -69.130366558   0   0   0 # c'
    228     12   5 -0.380000    78.137300327     9.516812399   -69.633998834   0   0   0 # o'
    229     12   7 -0.500000    76.489572931    10.072884622   -68.131097001   0   0   0 # n
    230     13   1  0.280000    73.494208674    13.988227274   -73.899706873   0   0   0 # hn
    231     13   2  0.020000    67.567740252    15.679083011   -76.089809507   0   0   0 # c2
    232     13   3  0.100000    67.195923192    14.621941524   -76.246086471   0   0   0 # h
    233     13   3  0.100000    67.132273656    15.967596814   -75.110402208   0   0   0 # h
    234     13   2 -0.200000    69.050382547    15.775437011   -75.825005896   0   0   0 # c2
    235     13   3  0.100000    69.513659839    15.843282176   -76.893344114   0   0   0 # h
    236     13   3  0.100000    69.193289443    16.624280631   -75.191292806   0   0   0 # h
    237     13   2 -0.200000    69.564103969    14.554969515   -75.088920356   0   0   0 # c2
    238     13   3  0.100000    69.015395362    13.659415081   -75.455837814   0   0   0 # h
    239     13   3  0.100000    69.417408599    14.605468088   -73.947337045   0   0   0 # h
    240     13   2 -0.200000    71.059676962    14.284827484   -75.450904914   0   0   0 # c2
    241     13   3  0.100000    71.284226734    14.301362103   -76.527379083   0   0   0 # h
    242     13   3  0.100000    71.699704652    15.107606408   -75.130740447   0   0   0 # h
    243     13   2 -0.200000    71.405256162    12.891316014   -74.836086763   0   0   0 # c2
    244     13   3  0.100000    70.643563671    12.179166833   -74.995374889   0   0   0 # h
    245     13   3  0.100000    72.255005130    12.385409727   -75.334475468   0   0   0 # h
    246     13   4  0.380000    71.878604523    12.996348975   -73.381211472   0   0   0 # c'
    247     13   5 -0.380000    71.106856350    12.688482134   -72.518489119   0   0   0 # o'
    248     13   7 -0.500000    73.077211570    13.507248287   -73.138812728   0   0   0 # n
    249     14   1  0.280000    67.763224084    17.397233156   -77.685129737   0   0   0 # hn
    250     14   2  0.020000    68.234520965    17.834644421   -82.642291505   0   0   0 # c2
    251     14   3  0.100000    68.786783412    17.589316308   -81.699720642   0   0   0 # h
    252     14   3  0.100000    67.726480827    16.877298658   -83.018686110   0   0   0 # h
    253     14   2 -0.200000    67.273065900    18.938014445   -82.236818294   0   0   0 # c2
    254     14   3  0.100000    67.743546848    19.813180980   -81.843712390   0   0   0 # h
    255     14   3  0.100000    66.789983229    19.352243689   -83.093026871   0   0   0 # h
    256     14   2 -0.200000    66.142562495    18.388869654   -81.340174282   0   0   0 # c2
    257     14   3  0.100000    65.294437952    17.848468001   -81.957317370   0   0   0 # h
    258     14   3  0.100000    65.505277087    19.352317454   -81.016901422   0   0   0 # h
    259     14   2 -0.200000    66.610092764    17.535190004   -80.164653723   0   0   0 # c2
    260     14   3  0.100000    66.685508237    16.520590072   -80.489403858   0   0   0 # h
    261     14   3  0.100000    67.542622101    17.930045518   -79.789270385   0   0   0 # h
    262     14   2 -0.200000    65.674679201    17.503069352   -78.880950707   0   0   0 # c2
    263     14   3  0.100000    65.650484282    18.554472993   -78.428651207   0   0   0 # h
    264     14   3  0.100000    64.637765757    17.297280928   -79.121034067   0   0   0 # h
    265     14   4  0.380000    66.128905002    16.405944187   -77.969507770   0   0   0 # c'
    266     14   5 -0.380000    65.373412774    15.509873394   -77.670593243   0   0   0 # o'
    267     14   7 -0.500000    67.255649191    16.570828119   -77.261617616   0   0   0 # n
    268     15   1  0.280000    69.037568548    18.833050181   -84.301488116   0   0   0 # hn
    269     15   2  0.020000    75.112616636    19.600675071   -81.278825745   0   0   0 # c2
    270     15   3  0.100000    74.447278627    20.453547507   -81.098501360   0   0   0 # h
    271     15   3  0.100000    74.961249529    18.796540608   -80.577233684   0   0   0 # h
    272     15   2 -0.200000    74.830743428    19.077004765   -82.675184162   0   0   0 # c2
    273     15   3  0.100000    75.127295674    19.822276941   -83.422082492   0   0   0 # h
    274     15   3  0.100000    75.458729481    18.163899911   -82.865432466   0   0   0 # h
    275     15   2 -0.200000    73.319146459    18.788028151   -82.876882107   0   0   0 # c2
    276     15   3  0.100000    72.813384707    19.750643285   -83.073660827   0   0   0 # h
    277     15   3  0.100000    72.841459828    18.450127077   -81.875809936   0   0   0 # h
    278     15   2 -0.200000    72.965055840    17.876909115   -83.986389038   0   0   0 # c2
    279     15   3  0.100000    73.602529024    17.948728215   -84.801837094   0   0   0 # h
    280     15   3  0.100000    73.102523218    16.820784828   -83.661026879   0   0   0 # h
    281     15   2 -0.200000    71.540451025    18.043992019   -84.515988580   0   0   0 # c2