LAMMPS data file. msi2lmp v3.9.9 / 05 Nov 2018 / CGCMM for Structures\pa6_x100_cvff_relax

   1902 atoms
   1901 bonds
   3600 angles
   5194 dihedrals
    200 impropers

   8 atom types
  11 bond types
  21 angle types
  27 dihedral types
   4 improper types

   271.857162345   348.476922903 xlo xhi
    -5.848580950    57.878440959 ylo yhi
  -324.211353294  -257.497806833 zlo zhi

Masses

   1   1.007970 # hn
   2  12.011150 # c2
   3   1.007970 # h
   4  12.011150 # c'
   5  15.999400 # o'
   6  14.006700 # n2
   7  14.006700 # n
   8  12.011150 # c3

Pair Coeffs # lj/cut/coul/long

   1   0.0000000000   0.0000000000 # hn
   2   0.0389999952   3.8754094636 # c2
   3   0.0380000011   2.4499714540 # h
   4   0.1479999981   3.6170487995 # c'
   5   0.2280000124   2.8597848722 # o'
   6   0.1669999743   3.5012320066 # n2
   7   0.1669999743   3.5012320066 # n
   8   0.0389999952   3.8754094636 # c3

Bond Coeffs # harmonic

   1   457.4592     1.0260 # hn-n2
   2   322.7158     1.5260 # c2-c2
   3   340.6175     1.1050 # c2-h
   4   377.5752     1.4600 # c2-n
   5   283.0924     1.5200 # c2-c'
   6   615.3220     1.2300 # c'-o'
   7   388.0000     1.3200 # c'-n2
   8   483.4512     1.0260 # hn-n
   9   388.0000     1.3200 # c'-n
  10   322.7158     1.5260 # c2-c3
  11   340.6175     1.1050 # h-c3

Angle Coeffs # harmonic

   1    44.4000   110.0000 # c2-c2-h
   2    50.0000   109.5000 # c2-c2-n
   3    39.5000   106.4000 # h-c2-h
   4    51.5000   109.5000 # h-c2-n
   5    46.6000   110.5000 # c2-c2-c2
   6    45.0000   109.5000 # h-c2-c'
   7    46.6000   110.5000 # c2-c2-c'
   8    68.0000   120.0000 # o'-c'-n2
   9    68.0000   120.0000 # c2-c'-o'
  10    53.5000   114.1000 # c2-c'-n2
  11    37.5000   115.0000 # hn-n2-c'
  12    33.0000   125.0000 # hn-n2-hn
  13    68.0000   120.0000 # o'-c'-n
  14    53.5000   114.1000 # c2-c'-n
  15    37.5000   115.0000 # hn-n-c'
  16   111.0000   118.0000 # c2-n-c'
  17    35.0000   122.0000 # hn-n-c2
  18    44.4000   110.0000 # c2-c3-h
  19    39.5000   106.4000 # h-c3-h
  20    46.6000   110.5000 # c2-c2-c3
  21    44.4000   110.0000 # h-c2-c3

Dihedral Coeffs # harmonic

  1     0.1581   1   3 # c2-c2-c2-h
  2     0.1581   1   3 # h-c2-c2-h
  3     0.1581   1   3 # c2-c2-c2-n
  4     0.1581   1   3 # h-c2-c2-n
  5     0.0000   1   0 # c2-c2-n-c'
  6     0.0000   1   0 # c2-c2-n-hn
  7     0.0000   1   0 # h-c2-n-c'
  8     0.0000   1   0 # h-c2-n-hn
  9     0.1581   1   3 # c2-c2-c2-c2
 10     0.1581   1   3 # c2-c2-c2-c'
 11     0.1581   1   3 # h-c2-c2-c'
 12     0.0000   1   0 # h-c2-c'-o'
 13     0.0000   1   0 # h-c2-c'-n2
 14     0.0000   1   0 # c2-c2-c'-o'
 15     0.0000   1   0 # c2-c2-c'-n2
 16     1.5000  -1   2 # o'-c'-n2-hn
 17     1.5000  -1   2 # c2-c'-n2-hn
 18     0.0000   1   0 # h-c2-c'-n
 19     0.0000   1   0 # c2-c2-c'-n
 20     1.8000  -1   2 # o'-c'-n-hn
 21     3.8000  -1   2 # o'-c'-n-c2
 22     1.2000  -1   2 # c2-c'-n-hn
 23     3.2000  -1   2 # c2-c'-n-c2
 24     0.1581   1   3 # c2-c2-c3-h
 25     0.1581   1   3 # h-c2-c3-h
 26     0.1581   1   3 # c2-c2-c2-c3
 27     0.1581   1   3 # h-c2-c2-c3

Improper Coeffs # cvff

    1    10.0000  -1   2 # c2-c'-n2-o'
    2     0.0500  -1   2 # hn-n2-c'-hn
    3    10.0000  -1   2 # c2-c'-n-o'
    4     0.0500  -1   2 # c'-n-c2-hn

Atoms # full

      1      1   1  0.280000   291.162178976    33.725922744  -323.506026733   0   0   0 # hn
      2      1   2  0.020000   294.926640064    34.102683165  -319.291511875   0   0   0 # c2
      3      1   3  0.100000   294.011024555    34.286846987  -318.889408684   0   0   0 # h
      4      1   3  0.100000   295.009176544    33.011694734  -319.650169794   0   0   0 # h
      5      1   2 -0.200000   295.388870848    34.851558808  -320.483979549   0   0   0 # c2
      6      1   3  0.100000   295.450147059    35.938861444  -320.181963894   0   0   0 # h
      7      1   3  0.100000   296.278900559    34.341600547  -320.898655076   0   0   0 # h
      8      1   2 -0.200000   294.415005353    34.723878457  -321.775469990   0   0   0 # c2
      9      1   3  0.100000   293.877366640    33.707899827  -321.723301141   0   0   0 # h
     10      1   3  0.100000   295.031783702    34.671393546  -322.718883324   0   0   0 # h
     11      1   2 -0.200000   293.426037121    35.886986875  -321.955468343   0   0   0 # c2
     12      1   3  0.100000   293.283959319    36.310027286  -320.985591781   0   0   0 # h
     13      1   3  0.100000   293.969980527    36.720062463  -322.420219380   0   0   0 # h
     14      1   2 -0.200000   292.273009537    35.552242050  -322.878584655   0   0   0 # c2
     15      1   3  0.100000   292.009890126    36.455420213  -323.321447202   0   0   0 # h
     16      1   3  0.100000   292.545586361    34.906565663  -323.711353294   0   0   0 # h
     17      1   4  0.380000   291.066231107    35.050457583  -322.244906960   0   0   0 # c'
     18      1   5 -0.380000   290.679683743    35.320572814  -321.170083360   0   0   0 # o'
     19      1   6 -0.560000   290.395968870    34.182119938  -322.973967161   0   0   0 # n2
     20      1   1  0.280000   289.703192297    33.828360374  -322.343085819   0   0   0 # hn
     21      2   1  0.280000   295.881639327    35.190049458  -317.658988350   0   0   0 # hn
     22      2   2  0.020000   300.397538521    36.029517561  -313.654581161   0   0   0 # c2
     23      2   3  0.100000   299.978685997    35.224029058  -313.041124403   0   0   0 # h
     24      2   3  0.100000   301.492529763    36.064787750  -313.837891755   0   0   0 # h
     25      2   2 -0.200000   299.599162966    35.878900425  -314.977005317   0   0   0 # c2
     26      2   3  0.100000   298.520711998    35.675293189  -314.768559023   0   0   0 # h
     27      2   3  0.100000   299.575625138    36.820703424  -315.524740794   0   0   0 # h
     28      2   2 -0.200000   300.081042294    34.798812675  -315.908328477   0   0   0 # c2
     29      2   3  0.100000   300.160807184    33.884330675  -315.322151012   0   0   0 # h
     30      2   3  0.100000   301.081589534    35.059230663  -316.292248538   0   0   0 # h
     31      2   2 -0.200000   299.073550637    34.593072744  -317.078616105   0   0   0 # c2
     32      2   3  0.100000   298.803421566    35.611626666  -317.538199778   0   0   0 # h
     33      2   3  0.100000   299.606537127    33.965315693  -317.803596193   0   0   0 # h
     34      2   2 -0.200000   297.816476284    33.751546503  -316.744081177   0   0   0 # c2
     35      2   3  0.100000   298.007514490    32.737689485  -316.268709440   0   0   0 # h
     36      2   3  0.100000   297.304226230    34.205094826  -315.946842856   0   0   0 # h
     37      2   4  0.380000   296.894849005    33.523990297  -317.950424516   0   0   0 # c'
     38      2   5 -0.380000   297.063748002    32.531258957  -318.615430470   0   0   0 # o'
     39      2   7 -0.500000   295.859079407    34.352776413  -318.141820214   0   0   0 # n
     40      3   1  0.280000   299.214204556    37.904696743  -313.672611800   0   0   0 # hn
     41      3   2  0.020000   296.173364939    42.651253161  -311.826193806   0   0   0 # c2
     42      3   3  0.100000   296.530315355    43.276180664  -310.960809833   0   0   0 # h
     43      3   3  0.100000   296.707397281    43.137819842  -312.734737819   0   0   0 # h
     44      3   2 -0.200000   296.724826991    41.274693904  -311.656014909   0   0   0 # c2
     45      3   3  0.100000   296.704605106    41.104312518  -310.514880236   0   0   0 # h
     46      3   3  0.100000   296.182885473    40.472369793  -312.279988702   0   0   0 # h
     47      3   2 -0.200000   298.293589471    41.179686556  -312.131182905   0   0   0 # c2
     48      3   3  0.100000   298.791186857    41.913797140  -311.424914557   0   0   0 # h
     49      3   3  0.100000   298.419886044    41.508142347  -313.174399661   0   0   0 # h
     50      3   2 -0.200000   298.785720943    39.750568274  -311.697537350   0   0   0 # c2
     51      3   3  0.100000   298.597054992    39.792522065  -310.589317892   0   0   0 # h
     52      3   3  0.100000   297.991978370    39.105655047  -312.146971367   0   0   0 # h
     53      3   2 -0.200000   300.222599651    39.360018491  -311.961724353   0   0   0 # c2
     54      3   3  0.100000   300.666379361    39.919400267  -312.890765698   0   0   0 # h
     55      3   3  0.100000   300.891874516    39.726624280  -311.144215624   0   0   0 # h
     56      3   4  0.380000   300.548096021    37.843648909  -312.168414553   0   0   0 # c'
     57      3   5 -0.380000   301.277004707    37.200890221  -311.459399108   0   0   0 # o'
     58      3   7 -0.500000   299.873747958    37.299025870  -313.114059726   0   0   0 # n
     59      4   1  0.280000   294.226526823    41.760962339  -312.201255083   0   0   0 # hn
     60      4   2  0.020000   289.625084334    44.433642367  -314.974225914   0   0   0 # c2
     61      4   3  0.100000   289.532880618    45.567845805  -314.907092354   0   0   0 # h
     62      4   3  0.100000   290.503213928    44.204788507  -315.660453908   0   0   0 # h
     63      4   2 -0.200000   290.006757066    43.892977822  -313.572779434   0   0   0 # c2
     64      4   3  0.100000   289.270600529    44.170643873  -312.902753604   0   0   0 # h
     65      4   3  0.100000   290.018758376    42.796984458  -313.552793197   0   0   0 # h
     66      4   2 -0.200000   291.329120621    44.437612708  -312.863868111   0   0   0 # c2
     67      4   3  0.100000   291.176657686    45.494885282  -312.827176226   0   0   0 # h
     68      4   3  0.100000   292.228604050    44.182103975  -313.389392704   0   0   0 # h
     69      4   2 -0.200000   291.471718797    44.040904587  -311.412886744   0   0   0 # c2
     70      4   3  0.100000   291.872182828    44.811293484  -310.815741386   0   0   0 # h
     71      4   3  0.100000   290.492808178    44.038914701  -310.961550880   0   0   0 # h
     72      4   2 -0.200000   292.255081554    42.761769785  -311.094617972   0   0   0 # c2
     73      4   3  0.100000   291.976714319    42.441129007  -310.101784877   0   0   0 # h
     74      4   3  0.100000   292.131607676    41.912436537  -311.719341214   0   0   0 # h
     75      4   4  0.380000   293.853474878    43.038501092  -310.897324643   0   0   0 # c'
     76      4   5 -0.380000   294.297036633    43.768146671  -310.041937142   0   0   0 # o'
     77      4   7 -0.500000   294.723330310    42.604182526  -311.899796123   0   0   0 # n
     78      5   1  0.280000   287.516393315    43.973293405  -314.825926283   0   0   0 # hn
     79      5   2  0.020000   283.434457646    42.882892427  -316.712877616   0   0   0 # c2
     80      5   3  0.100000   284.004210465    43.623440521  -316.166450918   0   0   0 # h
     81      5   3  0.100000   282.443994996    43.297444450  -316.695511794   0   0   0 # h
     82      5   2 -0.200000   283.803155812    42.753831835  -318.240368423   0   0   0 # c2
     83      5   3  0.100000   283.197059613    42.028438457  -318.829951348   0   0   0 # h
     84      5   3  0.100000   283.642396672    43.712026229  -318.699661602   0   0   0 # h
     85      5   2 -0.200000   285.194133291    42.268999225  -318.578762985   0   0   0 # c2
     86      5   3  0.100000   285.278738018    42.222562941  -319.682239006   0   0   0 # h
     87      5   3  0.100000   285.318007312    41.152813250  -318.354323022   0   0   0 # h
     88      5   2 -0.200000   286.434098057    43.018791302  -318.054087519   0   0   0 # c2
     89      5   3  0.100000   287.270994345    42.889184768  -318.720278707   0   0   0 # h
     90      5   3  0.100000   286.421239873    44.147516715  -318.131660200   0   0   0 # h
     91      5   2 -0.200000   286.897554969    42.484290927  -316.647790140   0   0   0 # c2
     92      5   3  0.100000   286.193539020    42.728584641  -315.764462108   0   0   0 # h
     93      5   3  0.100000   286.799934141    41.315568453  -316.594353612   0   0   0 # h
     94      5   4  0.380000   288.281587804    42.823422234  -316.219167628   0   0   0 # c'
     95      5   5 -0.380000   289.324996052    42.283828031  -316.601544446   0   0   0 # o'
     96      5   7 -0.500000   288.370791698    43.886481532  -315.400839037   0   0   0 # n
     97      6   1  0.280000   284.026442545    40.880262484  -316.362204738   0   0   0 # hn
     98      6   2  0.020000   282.943749895    37.664022307  -310.261262474   0   0   0 # c2
     99      6   3  0.100000   282.054006845    37.969635634  -309.621166544   0   0   0 # h
    100      6   3  0.100000   282.456203602    37.032737635  -311.099408236   0   0   0 # h
    101      6   2 -0.200000   283.472515452    39.009990852  -311.042687468   0   0   0 # c2
    102      6   3  0.100000   283.907876102    39.674036544  -310.247002431   0   0   0 # h
    103      6   3  0.100000   284.169385598    38.700766562  -311.827016054   0   0   0 # h
    104      6   2 -0.200000   282.245397611    39.786152816  -311.490463901   0   0   0 # c2
    105      6   3  0.100000   281.914777905    40.204615582  -310.470731600   0   0   0 # h
    106      6   3  0.100000   281.487569121    39.050363573  -311.767971762   0   0   0 # h
    107      6   2 -0.200000   282.400453703    40.790933084  -312.463610328   0   0   0 # c2
    108      6   3  0.100000   281.492213937    41.390725731  -312.533872143   0   0   0 # h
    109      6   3  0.100000   283.077668771    41.553268605  -311.973862057   0   0   0 # h
    110      6   2 -0.200000   282.885442850    40.365563043  -313.924304880   0   0   0 # c2
    111      6   3  0.100000   283.977580367    40.251569277  -313.939852373   0   0   0 # h
    112      6   3  0.100000   282.429943162    39.424197200  -314.174112973   0   0   0 # h
    113      6   4  0.380000   282.485393636    41.232868778  -315.105314864   0   0   0 # c'
    114      6   5 -0.380000   281.332086557    41.671926282  -315.162650028   0   0   0 # o'
    115      6   7 -0.500000   283.445143026    41.596962493  -315.971305302   0   0   0 # n
    116      7   1  0.280000   284.701500139    37.608290769  -309.020394768   0   0   0 # hn
    117      7   2  0.020000   289.232564757    34.742064406  -306.061624524   0   0   0 # c2
    118      7   3  0.100000   290.255246043    34.887468668  -306.554874598   0   0   0 # h
    119      7   3  0.100000   289.214516541    35.455206541  -305.175115037   0   0   0 # h
    120      7   2 -0.200000   288.006949015    35.247798660  -306.877899954   0   0   0 # c2
    121      7   3  0.100000   288.133795769    36.331675957  -307.033680502   0   0   0 # h
    122      7   3  0.100000   288.074260915    34.829292484  -307.949308562   0   0   0 # h
    123      7   2 -0.200000   286.667248937    35.061951743  -306.222762618   0   0   0 # c2
    124      7   3  0.100000   286.667356618    35.345335321  -305.145487764   0   0   0 # h
    125      7   3  0.100000   286.428765028    33.958122307  -306.320301220   0   0   0 # h
    126      7   2 -0.200000   285.476429318    35.824886046  -306.906763005   0   0   0 # c2
    127      7   3  0.100000   284.587807976    35.728049304  -306.288462922   0   0   0 # h
    128      7   3  0.100000   285.740380416    36.928223101  -306.886873642   0   0   0 # h
    129      7   2 -0.200000   285.290752703    35.388468837  -308.328353780   0   0   0 # c2
    130      7   3  0.100000   286.158122352    35.870127410  -308.899471857   0   0   0 # h
    131      7   3  0.100000   285.420248033    34.233322999  -308.298595871   0   0   0 # h
    132      7   4  0.380000   284.009129176    35.781005982  -309.095823985   0   0   0 # c'
    133      7   5 -0.380000   283.129711733    34.967306772  -309.321879208   0   0   0 # o'
    134      7   7 -0.500000   283.943030008    37.069848688  -309.429006224   0   0   0 # n
    135      8   1  0.280000   288.630514114    33.129870025  -304.741499797   0   0   0 # hn
    136      8   2  0.020000   287.009954021    26.246000347  -306.030608099   0   0   0 # c2
    137      8   3  0.100000   287.836065726    25.815628651  -305.419300047   0   0   0 # h
    138      8   3  0.100000   286.217647423    26.366134404  -305.258990660   0   0   0 # h
    139      8   2 -0.200000   287.301867514    27.459697963  -306.861764965   0   0   0 # c2
    140      8   3  0.100000   287.998175156    27.282277423  -307.766910855   0   0   0 # h
    141      8   3  0.100000   286.466201061    27.887458823  -307.409935245   0   0   0 # h
    142      8   2 -0.200000   287.969412684    28.608270900  -306.042124735   0   0   0 # c2
    143      8   3  0.100000   288.812966997    28.201471744  -305.472065204   0   0   0 # h
    144      8   3  0.100000   287.218257371    28.837357606  -305.232296997   0   0   0 # h
    145      8   2 -0.200000   288.298424086    29.895220652  -306.805949695   0   0   0 # c2
    146      8   3  0.100000   289.037530607    29.801999836  -307.568219624   0   0   0 # h
    147      8   3  0.100000   287.405873114    30.337813818  -307.265056710   0   0   0 # h
    148      8   2 -0.200000   288.860101201    30.921926247  -305.812675457   0   0   0 # c2
    149      8   3  0.100000   288.147174874    31.161595695  -305.017523334   0   0   0 # h
    150      8   3  0.100000   289.695463668    30.487878974  -305.292705353   0   0   0 # h
    151      8   4  0.380000   289.283898842    32.281160912  -306.374483089   0   0   0 # c'
    152      8   5 -0.380000   289.867699068    32.389803298  -307.447424476   0   0   0 # o'
    153      8   7 -0.500000   289.171187318    33.308419933  -305.608131509   0   0   0 # n
    154      9   1  0.280000   286.027512357    25.397403877  -307.814985545   0   0   0 # hn
    155      9   2  0.020000   281.761469407    22.395885473  -305.755982994   0   0   0 # c2
    156      9   3  0.100000   280.797812031    22.058832136  -306.227727963   0   0   0 # h
    157      9   3  0.100000   282.168071390    21.513679773  -305.250839637   0   0   0 # h
    158      9   2 -0.200000   282.607509781    22.925451889  -306.898885213   0   0   0 # c2
    159      9   3  0.100000   282.200447769    22.352176548  -307.762325155   0   0   0 # h
    160      9   3  0.100000   282.385252120    24.029442090  -307.110788351   0   0   0 # h
    161      9   2 -0.200000   284.127473748    22.649907357  -306.768865748   0   0   0 # c2
    162      9   3  0.100000   284.277251291    21.565570266  -306.533382735   0   0   0 # h
    163      9   3  0.100000   284.594630545    23.097005853  -305.909241466   0   0   0 # h
    164      9   2 -0.200000   284.870482086    22.871753021  -308.113062715   0   0   0 # c2
    165      9   3  0.100000   284.690308301    22.115274658  -308.836129057   0   0   0 # h
    166      9   3  0.100000   284.391173432    23.824846988  -308.581541211   0   0   0 # h
    167      9   2 -0.200000   286.425725566    23.003267064  -308.019798559   0   0   0 # c2
    168      9   3  0.100000   286.833896556    22.030475726  -307.717301491   0   0   0 # h
    169      9   3  0.100000   286.933404135    23.169147065  -309.009909745   0   0   0 # h
    170      9   4  0.380000   286.996466865    23.989895471  -306.953191013   0   0   0 # c'
    171      9   5 -0.380000   287.715987829    23.495187296  -306.123230400   0   0   0 # o'
    172      9   7 -0.500000   286.583104772    25.228849820  -306.998233255   0   0   0 # n
    173     10   1  0.280000   282.053159497    24.508219940  -304.866381630   0   0   0 # hn
    174     10   2  0.020000   280.888781491    26.918835697  -298.421341650   0   0   0 # c2
    175     10   3  0.100000   280.624445936    27.909089716  -298.833031838   0   0   0 # h
    176     10   3  0.100000   279.906337086    26.321310993  -298.199091961   0   0   0 # h
    177     10   2 -0.200000   281.790866356    26.074512811  -299.417608348   0   0   0 # c2
    178     10   3  0.100000   282.699472976    26.596582182  -299.709268190   0   0   0 # h
    179     10   3  0.100000   282.024392479    25.122902742  -298.846345327   0   0   0 # h
    180     10   2 -0.200000   280.929345242    25.962830260  -300.659895541   0   0   0 # c2
    181     10   3  0.100000   280.984879837    26.913928078  -301.227211738   0   0   0 # h
    182     10   3  0.100000   279.856738878    25.869301126  -300.494271490   0   0   0 # h
    183     10   2 -0.200000   281.482240192    24.815906867  -301.536274397   0   0   0 # c2
    184     10   3  0.100000   282.520234798    25.236543622  -301.845326343   0   0   0 # h
    185     10   3  0.100000   281.766577393    23.896373541  -300.999337210   0   0   0 # h
    186     10   2 -0.200000   280.479003695    24.519525026  -302.796922834   0   0   0 # c2
    187     10   3  0.100000   279.484253587    24.306270540  -302.472320640   0   0   0 # h
    188     10   3  0.100000   280.343582991    25.488696766  -303.362588511   0   0   0 # h
    189     10   4  0.380000   280.989201064    23.337285600  -303.557703378   0   0   0 # c'
    190     10   5 -0.380000   280.611907891    22.203171300  -303.252731142   0   0   0 # o'
    191     10   7 -0.500000   281.632123964    23.530827604  -304.760281170   0   0   0 # n
    192     11   1  0.280000   282.297095195    26.250558254  -296.863558742   0   0   0 # hn
    193     11   2  0.020000   287.354208112    27.722806209  -294.929176070   0   0   0 # c2
    194     11   3  0.100000   286.904112479    27.749005802  -295.876361246   0   0   0 # h
    195     11   3  0.100000   287.989343758    28.659809601  -294.934962084   0   0   0 # h
    196     11   2 -0.200000   286.358320916    27.707733838  -293.724946665   0   0   0 # c2
    197     11   3  0.100000   286.147880024    26.703187864  -293.298983750   0   0   0 # h
    198     11   3  0.100000   286.763318470    28.301285413  -292.862623513   0   0   0 # h
    199     11   2 -0.200000   285.014690103    28.309311681  -294.041470962   0   0   0 # c2
    200     11   3  0.100000   285.056257134    29.468226442  -294.199004008   0   0   0 # h
    201     11   3  0.100000   284.478635425    28.020216279  -293.056695353   0   0   0 # h
    202     11   2 -0.200000   284.182683314    27.807649979  -295.243720369   0   0   0 # c2
    203     11   3  0.100000   284.564848148    28.408968020  -296.086176711   0   0   0 # h
    204     11   3  0.100000   284.207554286    26.671998761  -295.448966686   0   0   0 # h
    205     11   2 -0.200000   282.636751664    28.065533742  -295.167135067   0   0   0 # c2
    206     11   3  0.100000   282.185203189    27.256776494  -294.517103834   0   0   0 # h
    207     11   3  0.100000   282.477175485    28.991786926  -294.506776810   0   0   0 # h
    208     11   4  0.380000   281.845059664    28.163265233  -296.463412223   0   0   0 # c'
    209     11   5 -0.380000   281.435621637    29.271682501  -296.716258200   0   0   0 # o'
    210     11   7 -0.500000   281.662405382    27.045222460  -297.160259526   0   0   0 # n
    211     12   1  0.280000   288.016054404    25.601359756  -295.050624600   0   0   0 # hn
    212     12   2  0.020000   293.168395260    22.041123234  -296.374556078   0   0   0 # c2
    213     12   3  0.100000   293.983478922    22.608401815  -297.028859229   0   0   0 # h
    214     12   3  0.100000   293.742937578    21.673478904  -295.510883864   0   0   0 # h
    215     12   2 -0.200000   292.115396216    23.121575982  -296.104127106   0   0   0 # c2
    216     12   3  0.100000   291.761314821    23.452505454  -297.084796831   0   0   0 # h
    217     12   3  0.100000   291.158547189    22.715262810  -295.596433154   0   0   0 # h
    218     12   2 -0.200000   292.624549099    24.280959317  -295.192880876   0   0   0 # c2
    219     12   3  0.100000   293.655555942    24.628921413  -295.581217775   0   0   0 # h
    220     12   3  0.100000   292.676888665    23.912337845  -294.177805903   0   0   0 # h
    221     12   2 -0.200000   291.616618900    25.347413792  -295.131668969   0   0   0 # c2
    222     12   3  0.100000   292.091096235    26.189799289  -294.660519874   0   0   0 # h
    223     12   3  0.100000   291.435459501    25.723606826  -296.181396308   0   0   0 # h
    224     12   2 -0.200000   290.251643613    25.166585700  -294.432845943   0   0   0 # c2
    225     12   3  0.100000   289.576292638    24.441837797  -295.028129011   0   0   0 # h
    226     12   3  0.100000   290.278346234    24.850568583  -293.326582348   0   0   0 # h
    227     12   4  0.380000   289.529894142    26.578323815  -294.473667808   0   0   0 # c'
    228     12   5 -0.380000   290.148687984    27.607297752  -294.250947774   0   0   0 # o'
    229     12   7 -0.500000   288.223380723    26.566856505  -294.832233096   0   0   0 # n
    230     13   1  0.280000   291.925576043    21.290382789  -298.019605712   0   0   0 # hn
    231     13   2  0.020000   287.933851736    15.515187999  -297.213225503   0   0   0 # c2
    232     13   3  0.100000   287.987585598    14.982304036  -298.169975204   0   0   0 # h
    233     13   3  0.100000   288.603925110    14.875662489  -296.515864656   0   0   0 # h
    234     13   2 -0.200000   288.569206719    16.858356152  -297.322337012   0   0   0 # c2
    235     13   3  0.100000   287.826119016    17.558624952  -297.877843307   0   0   0 # h
    236     13   3  0.100000   288.482533998    17.283617022  -296.315347532   0   0   0 # h
    237     13   2 -0.200000   290.005005525    16.965482992  -297.853414998   0   0   0 # c2
    238     13   3  0.100000   290.018780902    16.925311737  -298.948374572   0   0   0 # h
    239     13   3  0.100000   290.690174861    16.076616445  -297.492983260   0   0   0 # h
    240     13   2 -0.200000   290.669705620    18.195503422  -297.363529716   0   0   0 # c2
    241     13   3  0.100000   290.128858054    19.146102388  -297.418540185   0   0   0 # h
    242     13   3  0.100000   290.854749317    18.131312410  -296.218044186   0   0   0 # h
    243     13   2 -0.200000   292.138244307    18.601669660  -297.971460260   0   0   0 # c2
    244     13   3  0.100000   292.814390302    17.733192410  -297.945698185   0   0   0 # h
    245     13   3  0.100000   292.130693838    18.952940954  -299.025817054   0   0   0 # h
    246     13   4  0.380000   292.733955010    19.697601890  -297.039106332   0   0   0 # c'
    247     13   5 -0.380000   293.256898269    19.278211703  -295.978128943   0   0   0 # o'
    248     13   7 -0.500000   292.545536804    21.030670996  -297.231651561   0   0   0 # n
    249     14   1  0.280000   285.680469905    15.806038717  -297.271469800   0   0   0 # hn
    250     14   2  0.020000   281.397528618    16.151989625  -291.905390966   0   0   0 # c2
    251     14   3  0.100000   280.933883981    16.960761951  -292.544146610   0   0   0 # h
    252     14   3  0.100000   280.533624866    15.477714549  -291.929964509   0   0   0 # h
    253     14   2 -0.200000   282.667725178    15.578481909  -292.515083420   0   0   0 # c2
    254     14   3  0.100000   283.419057398    16.360812987  -292.523345742   0   0   0 # h
    255     14   3  0.100000   283.094049076    14.795502915  -291.863201671   0   0   0 # h
    256     14   2 -0.200000   282.501414733    15.088546473  -293.932925195   0   0   0 # c2
    257     14   3  0.100000   281.832648916    15.822970006  -294.521042519   0   0   0 # h
    258     14   3  0.100000   281.829951963    14.151941826  -293.834929469   0   0   0 # h
    259     14   2 -0.200000   283.795159573    14.827491196  -294.699870131   0   0   0 # c2
    260     14   3  0.100000   284.298719081    13.974036691  -294.203986984   0   0   0 # h
    261     14   3  0.100000   283.495277119    14.479328283  -295.668772466   0   0   0 # h
    262     14   2 -0.200000   284.777187246    16.063624488  -294.971394203   0   0   0 # c2
    263     14   3  0.100000   284.371496361    16.627785165  -295.721692586   0   0   0 # h
    264     14   3  0.100000   284.981095605    16.642448157  -294.056184045   0   0   0 # h
    265     14   4  0.380000   286.268454971    15.781852441  -295.391812186   0   0   0 # c'
    266     14   5 -0.380000   287.148653471    15.643216456  -294.505250185   0   0   0 # o'
    267     14   7 -0.500000   286.527875100    15.645711051  -296.703765701   0   0   0 # n
    268     15   1  0.280000   281.665286594    15.902376216  -289.794770226   0   0   0 # hn
    269     15   2  0.020000   285.654728998    18.882371979  -285.017928656   0   0   0 # c2
    270     15   3  0.100000   285.048247528    19.486905048  -284.334115923   0   0   0 # h
    271     15   3  0.100000   285.740418207    17.825886307  -284.629361911   0   0   0 # h
    272     15   2 -0.200000   285.165356057    18.996235032  -286.480514992   0   0   0 # c2
    273     15   3  0.100000   285.009184207    20.031320892  -286.741921334   0   0   0 # h
    274     15   3  0.100000   285.991574510    18.508128393  -287.175144845   0   0   0 # h
    275     15   2 -0.200000   283.865302219    18.102674524  -286.678403086   0   0   0 # c2
    276     15   3  0.100000   282.904994284    18.386183925  -286.068822040   0   0   0 # h
    277     15   3  0.100000   284.121035153    17.080670199  -286.299833009   0   0   0 # h
    278     15   2 -0.200000   283.578805759    17.987007795  -288.211072053   0   0   0 # c2
    279     15   3  0.100000   284.083197214    18.746894717  -288.728800773   0   0   0 # h
    280     15   3  0.100000   284.041345466    17.032718074  -288.577677794   0   0   0 # h
    281     15   2 -0.200000   282.110799716    18.073404613  -288.628155322   0   0   0 # c2