LAMMPS data file. msi2lmp v3.9.9 / 05 Nov 2018 / CGCMM for Structures\pa6_x50_cvff

    952 atoms
    951 bonds
   1800 angles
   2594 dihedrals
    100 impropers

   8 atom types
  11 bond types
  21 angle types
  27 dihedral types
   4 improper types

   130.103765762   175.392104299 xlo xhi
   -12.865556239    37.358964537 ylo yhi
  -169.946299416  -122.911897988 zlo zhi

Masses

   1   1.007970 # hn
   2  12.011150 # c2
   3   1.007970 # h
   4  12.011150 # c'
   5  15.999400 # o'
   6  14.006700 # n2
   7  14.006700 # n
   8  12.011150 # c3

Pair Coeffs # lj/cut/coul/long

   1   0.0000000000   0.0000000000 # hn
   2   0.0389999952   3.8754094636 # c2
   3   0.0380000011   2.4499714540 # h
   4   0.1479999981   3.6170487995 # c'
   5   0.2280000124   2.8597848722 # o'
   6   0.1669999743   3.5012320066 # n2
   7   0.1669999743   3.5012320066 # n
   8   0.0389999952   3.8754094636 # c3

Bond Coeffs # harmonic

   1   457.4592     1.0260 # hn-n2
   2   322.7158     1.5260 # c2-c2
   3   340.6175     1.1050 # c2-h
   4   377.5752     1.4600 # c2-n
   5   283.0924     1.5200 # c2-c'
   6   615.3220     1.2300 # c'-o'
   7   388.0000     1.3200 # c'-n2
   8   483.4512     1.0260 # hn-n
   9   388.0000     1.3200 # c'-n
  10   322.7158     1.5260 # c2-c3
  11   340.6175     1.1050 # h-c3

Angle Coeffs # harmonic

   1    44.4000   110.0000 # c2-c2-h
   2    50.0000   109.5000 # c2-c2-n
   3    39.5000   106.4000 # h-c2-h
   4    51.5000   109.5000 # h-c2-n
   5    46.6000   110.5000 # c2-c2-c2
   6    45.0000   109.5000 # h-c2-c'
   7    46.6000   110.5000 # c2-c2-c'
   8    68.0000   120.0000 # o'-c'-n2
   9    68.0000   120.0000 # c2-c'-o'
  10    53.5000   114.1000 # c2-c'-n2
  11    37.5000   115.0000 # hn-n2-c'
  12    33.0000   125.0000 # hn-n2-hn
  13    68.0000   120.0000 # o'-c'-n
  14    53.5000   114.1000 # c2-c'-n
  15    37.5000   115.0000 # hn-n-c'
  16   111.0000   118.0000 # c2-n-c'
  17    35.0000   122.0000 # hn-n-c2
  18    44.4000   110.0000 # c2-c3-h
  19    39.5000   106.4000 # h-c3-h
  20    46.6000   110.5000 # c2-c2-c3
  21    44.4000   110.0000 # h-c2-c3

Dihedral Coeffs # harmonic

  1     0.1581   1   3 # c2-c2-c2-h
  2     0.1581   1   3 # h-c2-c2-h
  3     0.1581   1   3 # c2-c2-c2-n
  4     0.1581   1   3 # h-c2-c2-n
  5     0.0000   1   0 # c2-c2-n-c'
  6     0.0000   1   0 # c2-c2-n-hn
  7     0.0000   1   0 # h-c2-n-c'
  8     0.0000   1   0 # h-c2-n-hn
  9     0.1581   1   3 # c2-c2-c2-c2
 10     0.1581   1   3 # c2-c2-c2-c'
 11     0.1581   1   3 # h-c2-c2-c'
 12     0.0000   1   0 # h-c2-c'-o'
 13     0.0000   1   0 # h-c2-c'-n2
 14     0.0000   1   0 # c2-c2-c'-o'
 15     0.0000   1   0 # c2-c2-c'-n2
 16     1.5000  -1   2 # o'-c'-n2-hn
 17     1.5000  -1   2 # c2-c'-n2-hn
 18     0.0000   1   0 # h-c2-c'-n
 19     0.0000   1   0 # c2-c2-c'-n
 20     1.8000  -1   2 # o'-c'-n-hn
 21     3.8000  -1   2 # o'-c'-n-c2
 22     1.2000  -1   2 # c2-c'-n-hn
 23     3.2000  -1   2 # c2-c'-n-c2
 24     0.1581   1   3 # c2-c2-c3-h
 25     0.1581   1   3 # h-c2-c3-h
 26     0.1581   1   3 # c2-c2-c2-c3
 27     0.1581   1   3 # h-c2-c2-c3

Improper Coeffs # cvff

    1    10.0000  -1   2 # c2-c'-n2-o'
    2     0.0500  -1   2 # hn-n2-c'-hn
    3    10.0000  -1   2 # c2-c'-n-o'
    4     0.0500  -1   2 # c'-n-c2-hn

Atoms # full

      1      1   1  0.280000   145.384856785    26.319004746  -135.831153813   0   0   0 # hn
      2      1   2  0.020000   151.085039741    22.481508168  -134.783409861   0   0   0 # c2
      3      1   3  0.100000   150.296754763    22.531742472  -133.987309328   0   0   0 # h
      4      1   3  0.100000   150.786314972    21.503620205  -135.122135622   0   0   0 # h
      5      1   2 -0.200000   150.999911650    23.727856614  -135.755212853   0   0   0 # c2
      6      1   3  0.100000   151.372115240    24.636487605  -135.078340058   0   0   0 # h
      7      1   3  0.100000   151.771727697    23.579395892  -136.522024199   0   0   0 # h
      8      1   2 -0.200000   149.521118500    24.036870238  -136.254856369   0   0   0 # c2
      9      1   3  0.100000   148.974991542    24.256588135  -135.283965828   0   0   0 # h
     10      1   3  0.100000   149.008471046    23.187260029  -136.727279424   0   0   0 # h
     11      1   2 -0.200000   149.528874101    25.338362897  -137.107410384   0   0   0 # c2
     12      1   3  0.100000   150.178267654    26.120110724  -136.563997509   0   0   0 # h
     13      1   3  0.100000   150.052475461    24.972930176  -138.015564405   0   0   0 # h
     14      1   2 -0.200000   148.209279259    25.916862812  -137.560872281   0   0   0 # c2
     15      1   3  0.100000   148.496163122    26.685600145  -138.169794189   0   0   0 # h
     16      1   3  0.100000   147.820121914    25.223768664  -138.310642454   0   0   0 # h
     17      1   4  0.380000   147.219196030    26.382231196  -136.514267782   0   0   0 # c'
     18      1   5 -0.380000   147.592390986    27.092427506  -135.520726893   0   0   0 # o'
     19      1   6 -0.560000   145.920557484    25.997464907  -136.676603054   0   0   0 # n2
     20      1   1  0.280000   145.724147904    25.058051710  -137.094310811   0   0   0 # hn
     21      2   1  0.280000   153.035749953    23.163426936  -134.120851970   0   0   0 # hn
     22      2   2  0.020000   159.175829315    23.024139936  -135.392118915   0   0   0 # c2
     23      2   3  0.100000   159.521611305    22.257378224  -134.584676487   0   0   0 # h
     24      2   3  0.100000   159.676369199    22.732992557  -136.348560028   0   0   0 # h
     25      2   2 -0.200000   157.615636446    22.909139499  -135.344310433   0   0   0 # c2
     26      2   3  0.100000   157.184973570    23.222374319  -134.357395204   0   0   0 # h
     27      2   3  0.100000   157.282804514    23.732223394  -136.067541450   0   0   0 # h
     28      2   2 -0.200000   157.014161206    21.511374102  -135.761614593   0   0   0 # c2
     29      2   3  0.100000   157.297043050    20.634025324  -134.934379735   0   0   0 # h
     30      2   3  0.100000   157.230847410    21.279908450  -136.792838942   0   0   0 # h
     31      2   2 -0.200000   155.463637575    21.506409679  -135.791581418   0   0   0 # c2
     32      2   3  0.100000   155.033813996    22.372235261  -136.262709831   0   0   0 # h
     33      2   3  0.100000   154.993845218    20.521904413  -136.184781439   0   0   0 # h
     34      2   2 -0.200000   154.809833126    21.368298555  -134.403463219   0   0   0 # c2
     35      2   3  0.100000   155.076268717    20.360213934  -133.966922178   0   0   0 # h
     36      2   3  0.100000   155.120397500    22.190868844  -133.710529261   0   0   0 # h
     37      2   4  0.380000   153.281954985    21.237121566  -134.634136323   0   0   0 # c'
     38      2   5 -0.380000   152.837049379    20.173408953  -135.083816069   0   0   0 # o'
     39      2   7 -0.500000   152.529400459    22.313837117  -134.328945457   0   0   0 # n
     40      3   1  0.280000   159.486166724    25.196705103  -135.675770149   0   0   0 # hn
     41      3   2  0.020000   158.021524453    30.859527459  -135.198018429   0   0   0 # c2
     42      3   3  0.100000   158.930500107    31.049178389  -134.533407625   0   0   0 # h
     43      3   3  0.100000   158.447133953    30.695330994  -136.233908384   0   0   0 # h
     44      3   2 -0.200000   157.370441182    29.612412367  -134.821437721   0   0   0 # c2
     45      3   3  0.100000   156.616928490    29.687375525  -134.064127923   0   0   0 # h
     46      3   3  0.100000   156.780974222    29.211570532  -135.728899936   0   0   0 # h
     47      3   2 -0.200000   158.483920786    28.604188414  -134.395176251   0   0   0 # c2
     48      3   3  0.100000   159.094502952    28.961579058  -133.550212397   0   0   0 # h
     49      3   3  0.100000   159.156868048    28.615987316  -135.210679215   0   0   0 # h
     50      3   2 -0.200000   158.162669708    27.203378438  -134.023858936   0   0   0 # c2
     51      3   3  0.100000   157.335812078    27.152373886  -133.298500408   0   0   0 # h
     52      3   3  0.100000   157.798578860    26.743842093  -135.035040259   0   0   0 # h
     53      3   2 -0.200000   159.484183000    26.376789895  -133.540675975   0   0   0 # c2
     54      3   3  0.100000   160.440625734    26.696681292  -134.004805623   0   0   0 # h
     55      3   3  0.100000   159.589562217    26.673284649  -132.441265292   0   0   0 # h
     56      3   4  0.380000   159.408604325    24.952555371  -133.750061904   0   0   0 # c'
     57      3   5 -0.380000   159.497986248    24.192062833  -132.733671459   0   0   0 # o'
     58      3   7 -0.500000   159.438063004    24.417631063  -134.986049344   0   0   0 # n
     59      4   1  0.280000   156.335539659    31.826177912  -136.205478344   0   0   0 # hn
     60      4   2  0.020000   151.834199212    35.772718425  -132.124960864   0   0   0 # c2
     61      4   3  0.100000   151.916361842    36.858964537  -132.344480256   0   0   0 # h
     62      4   3  0.100000   151.220185610    35.206648642  -132.876192330   0   0   0 # h
     63      4   2 -0.200000   153.278846381    35.101134997  -132.330245060   0   0   0 # c2
     64      4   3  0.100000   154.021509323    35.638678570  -131.694224495   0   0   0 # h
     65      4   3  0.100000   153.142575521    34.044391683  -131.781610046   0   0   0 # h
     66      4   2 -0.200000   153.783764771    34.944319150  -133.760919067   0   0   0 # c2
     67      4   3  0.100000   153.829238910    35.897285088  -134.283330037   0   0   0 # h
     68      4   3  0.100000   152.931965315    34.421112468  -134.420006608   0   0   0 # h
     69      4   2 -0.200000   155.127913855    34.140479652  -133.765523793   0   0   0 # c2
     70      4   3  0.100000   155.856202306    34.750946592  -133.150155646   0   0   0 # h
     71      4   3  0.100000   154.963026538    33.281041283  -133.152747802   0   0   0 # h
     72      4   2 -0.200000   155.811835543    33.954101235  -135.172156693   0   0   0 # c2
     73      4   3  0.100000   155.115215802    33.573030335  -135.925525942   0   0   0 # h
     74      4   3  0.100000   156.037387907    34.911670666  -135.659505441   0   0   0 # h
     75      4   4  0.380000   157.173917448    33.105776214  -134.954866204   0   0   0 # c'
     76      4   5 -0.380000   158.114796631    33.570586161  -134.253393252   0   0   0 # o'
     77      4   7 -0.500000   157.126845530    31.938564143  -135.548194176   0   0   0 # n
     78      5   1  0.280000   151.396957712    35.843908673  -129.841254955   0   0   0 # hn
     79      5   2  0.020000   149.837675061    31.398448887  -125.298678136   0   0   0 # c2
     80      5   3  0.100000   150.835190112    31.051261212  -124.849928891   0   0   0 # h
     81      5   3  0.100000   149.564559830    32.296252873  -124.748018215   0   0   0 # h
     82      5   2 -0.200000   150.363957359    31.844880155  -126.693963384   0   0   0 # c2
     83      5   3  0.100000   151.386885962    32.146152543  -126.494626949   0   0   0 # h
     84      5   3  0.100000   150.491181389    31.007998895  -127.428761292   0   0   0 # h
     85      5   2 -0.200000   149.706356413    32.936320047  -127.418893818   0   0   0 # c2
     86      5   3  0.100000   149.262205257    33.722775134  -126.794755494   0   0   0 # h
     87      5   3  0.100000   148.819216717    32.476014039  -127.902134644   0   0   0 # h
     88      5   2 -0.200000   150.669426880    33.583103756  -128.388841889   0   0   0 # c2
     89      5   3  0.100000   151.463818300    34.129590219  -127.866218860   0   0   0 # h
     90      5   3  0.100000   151.054006998    32.727494547  -128.965757833   0   0   0 # h
     91      5   2 -0.200000   149.857513578    34.673453375  -129.111463241   0   0   0 # c2
     92      5   3  0.100000   148.823403121    34.557875016  -129.022253724   0   0   0 # h
     93      5   3  0.100000   150.071220689    35.701891256  -128.533353504   0   0   0 # h
     94      5   4  0.380000   150.151709493    34.758145578  -130.658644563   0   0   0 # c'
     95      5   5 -0.380000   149.532363283    34.188188681  -131.567270847   0   0   0 # o'
     96      5   7 -0.500000   151.199508913    35.467979478  -130.798293846   0   0   0 # n
     97      6   1  0.280000   149.023551098    29.609169512  -126.168022093   0   0   0 # hn
     98      6   2  0.020000   142.965719681    26.309086269  -125.263971116   0   0   0 # c2
     99      6   3  0.100000   143.360767184    26.169183496  -124.221292922   0   0   0 # h
    100      6   3  0.100000   141.996034516    26.722840189  -125.113729628   0   0   0 # h
    101      6   2 -0.200000   143.826741488    27.441890097  -125.987300536   0   0   0 # c2
    102      6   3  0.100000   143.647631458    27.503726933  -127.073800058   0   0   0 # h
    103      6   3  0.100000   143.407415607    28.404349501  -125.613389588   0   0   0 # h
    104      6   2 -0.200000   145.294405887    27.398833146  -125.571032762   0   0   0 # c2
    105      6   3  0.100000   145.788996394    26.790461237  -126.338697225   0   0   0 # h
    106      6   3  0.100000   145.440279530    26.868386402  -124.637740032   0   0   0 # h
    107      6   2 -0.200000   145.864621334    28.726788176  -125.190375077   0   0   0 # c2
    108      6   3  0.100000   145.841224011    29.469793724  -126.067484125   0   0   0 # h
    109      6   3  0.100000   145.229725575    29.167554183  -124.419229277   0   0   0 # h
    110      6   2 -0.200000   147.389678407    28.565895792  -124.754428534   0   0   0 # c2
    111      6   3  0.100000   147.481727615    28.048302568  -123.799543391   0   0   0 # h
    112      6   3  0.100000   147.904681436    27.861746687  -125.400934755   0   0   0 # h
    113      6   4  0.380000   148.044385478    29.980344759  -124.488163768   0   0   0 # c'
    114      6   5 -0.380000   147.869414548    30.655781809  -123.411897988   0   0   0 # o'
    115      6   7 -0.500000   148.817126414    30.345939693  -125.506577970   0   0   0 # n
    116      7   1  0.280000   143.636922721    24.905439133  -126.797425324   0   0   0 # hn
    117      7   2  0.020000   142.767278009    18.089005225  -126.744863612   0   0   0 # c2
    118      7   3  0.100000   143.386860772    17.460342298  -126.005655832   0   0   0 # h
    119      7   3  0.100000   141.759957085    17.875583725  -126.316830303   0   0   0 # h
    120      7   2 -0.200000   143.060939243    19.524579774  -126.543683281   0   0   0 # c2
    121      7   3  0.100000   143.363112894    19.777600083  -125.479751103   0   0   0 # h
    122      7   3  0.100000   143.912548361    19.964763651  -127.198064401   0   0   0 # h
    123      7   2 -0.200000   141.683494214    20.380759609  -126.781848346   0   0   0 # c2
    124      7   3  0.100000   140.928733034    19.654808328  -126.439020250   0   0   0 # h
    125      7   3  0.100000   141.548911368    20.491623272  -127.788508209   0   0   0 # h
    126      7   2 -0.200000   141.636577461    21.589250346  -125.872987134   0   0   0 # c2
    127      7   3  0.100000   140.575150718    21.730473193  -125.599420200   0   0   0 # h
    128      7   3  0.100000   142.064332342    21.366528866  -124.828723406   0   0   0 # h
    129      7   2 -0.200000   142.084896937    22.843253738  -126.548681301   0   0   0 # c2
    130      7   3  0.100000   143.035773384    22.796697838  -127.010552515   0   0   0 # h
    131      7   3  0.100000   141.400651214    22.981047115  -127.400401668   0   0   0 # h
    132      7   4  0.380000   142.006884837    24.195676385  -125.688643678   0   0   0 # c'
    133      7   5 -0.380000   141.211359166    24.383312595  -124.746002726   0   0   0 # o'
    134      7   7 -0.500000   142.944776415    25.093805770  -126.041145800   0   0   0 # n
    135      8   1  0.280000   142.705981246    18.119516704  -129.080392592   0   0   0 # hn
    136      8   2  0.020000   140.593979790    18.109845173  -134.447937649   0   0   0 # c2
    137      8   3  0.100000   140.680308030    19.252696118  -134.637233604   0   0   0 # h
    138      8   3  0.100000   141.619784828    17.712260654  -134.803821032   0   0   0 # h
    139      8   2 -0.200000   140.274898371    17.854998869  -132.934194622   0   0   0 # c2
    140      8   3  0.100000   139.910650249    18.825706206  -132.410776061   0   0   0 # h
    141      8   3  0.100000   139.318554580    17.336319593  -132.855712717   0   0   0 # h
    142      8   2 -0.200000   141.289727952    17.114627417  -132.169957692   0   0   0 # c2
    143      8   3  0.100000   142.278367368    17.599258297  -132.210143174   0   0   0 # h
    144      8   3  0.100000   141.575893032    16.235963343  -132.713544420   0   0   0 # h
    145      8   2 -0.200000   141.059743243    16.853622581  -130.630344336   0   0   0 # c2
    146      8   3  0.100000   140.790072681    17.824502632  -130.194975936   0   0   0 # h
    147      8   3  0.100000   140.184533572    16.328116361  -130.533458771   0   0   0 # h
    148      8   2 -0.200000   142.281533015    16.189082555  -129.989234081   0   0   0 # c2
    149      8   3  0.100000   142.157534380    15.068067915  -130.076203497   0   0   0 # h
    150      8   3  0.100000   143.287437371    16.367480072  -130.468831166   0   0   0 # h
    151      8   4  0.380000   142.489375957    16.332126907  -128.494588281   0   0   0 # c'
    152      8   5 -0.380000   142.269780991    15.382945125  -127.705053172   0   0   0 # o'
    153      8   7 -0.500000   142.846215488    17.631744001  -128.136030620   0   0   0 # n
    154      9   1  0.280000   139.632633484    16.383038254  -135.575020782   0   0   0 # hn
    155      9   2  0.020000   134.755656698    15.345627098  -140.106700345   0   0   0 # c2
    156      9   3  0.100000   134.091494291    15.079905481  -139.314882185   0   0   0 # h
    157      9   3  0.100000   134.266794429    16.131839894  -140.631753691   0   0   0 # h
    158      9   2 -0.200000   136.071074688    16.006143273  -139.601288263   0   0   0 # c2
    159      9   3  0.100000   137.005919408    15.651641672  -140.189219125   0   0   0 # h
    160      9   3  0.100000   135.949335703    17.110160364  -139.840486696   0   0   0 # h
    161      9   2 -0.200000   136.381315805    15.798288416  -138.155514519   0   0   0 # c2
    162      9   3  0.100000   136.735613053    14.771099602  -137.917053618   0   0   0 # h
    163      9   3  0.100000   135.500138906    16.145065994  -137.495681677   0   0   0 # h
    164      9   2 -0.200000   137.488290182    16.723323696  -137.618633970   0   0   0 # c2
    165      9   3  0.100000   138.428012837    16.404308236  -138.178043197   0   0   0 # h
    166      9   3  0.100000   137.404679011    17.784668901  -137.969330299   0   0   0 # h
    167      9   2 -0.200000   137.650805955    16.721775152  -136.082426749   0   0   0 # c2
    168      9   3  0.100000   136.573573516    16.701526215  -135.549391813   0   0   0 # h
    169      9   3  0.100000   137.988658226    15.678605824  -135.741084927   0   0   0 # h
    170      9   4  0.380000   138.498658711    17.840019777  -135.586983242   0   0   0 # c'
    171      9   5 -0.380000   138.069429628    18.967586415  -135.359352463   0   0   0 # o'
    172      9   7 -0.500000   139.687975961    17.400005767  -135.304967402   0   0   0 # n
    173     10   1  0.280000   135.416400827    13.274085140  -140.541985410   0   0   0 # hn
    174     10   2  0.020000   133.195449128     9.055234745  -142.437979819   0   0   0 # c2
    175     10   3  0.100000   132.424328787     9.906613748  -142.778906556   0   0   0 # h
    176     10   3  0.100000   132.763002584     8.056275859  -142.821055303   0   0   0 # h
    177     10   2 -0.200000   134.613159517     9.254226075  -142.979613541   0   0   0 # c2
    178     10   3  0.100000   135.362771338     9.372602869  -142.184058327   0   0   0 # h
    179     10   3  0.100000   134.887359221     8.344450932  -143.582048850   0   0   0 # h
    180     10   2 -0.200000   134.713561415    10.458359620  -143.946701510   0   0   0 # c2
    181     10   3  0.100000   134.162573889    10.327609407  -144.897511846   0   0   0 # h
    182     10   3  0.100000   135.756058849    10.721424117  -144.148181594   0   0   0 # h
    183     10   2 -0.200000   134.223322436    11.809989254  -143.311655695   0   0   0 # c2
    184     10   3  0.100000   133.741985226    12.453251981  -144.134870953   0   0   0 # h
    185     10   3  0.100000   133.360789418    11.738708156  -142.580256729   0   0   0 # h
    186     10   2 -0.200000   135.263106833    12.812713773  -142.910507921   0   0   0 # c2
    187     10   3  0.100000   136.022646923    12.419983619  -142.235088945   0   0   0 # h
    188     10   3  0.100000   135.813203737    13.218326964  -143.816598860   0   0   0 # h
    189     10   4  0.380000   134.594356292    14.075302356  -142.190087078   0   0   0 # c'
    190     10   5 -0.380000   133.953186777    14.911752081  -142.848307668   0   0   0 # o'
    191     10   7 -0.500000   134.901603971    14.124905792  -140.899806961   0   0   0 # n
    192     11   1  0.280000   133.941959235     8.547564344  -140.455258923   0   0   0 # hn
    193     11   2  0.020000   132.294641280     8.113074569  -134.072058332   0   0   0 # c2
    194     11   3  0.100000   132.154155942     9.113752294  -133.687775579   0   0   0 # h
    195     11   3  0.100000   131.394187177     7.563809806  -134.012047878   0   0   0 # h
    196     11   2 -0.200000   132.581701948     8.076308743  -135.670792881   0   0   0 # c2
    197     11   3  0.100000   133.503335782     8.537927351  -135.872150348   0   0   0 # h
    198     11   3  0.100000   132.853576689     7.008778055  -135.938639981   0   0   0 # h
    199     11   2 -0.200000   131.480087499     8.538964911  -136.581083771   0   0   0 # c2
    200     11   3  0.100000   130.967468891     9.487710763  -136.315979773   0   0   0 # h
    201     11   3  0.100000   130.603765762     7.849093664  -136.415530243   0   0   0 # h
    202     11   2 -0.200000   131.748953037     8.386407057  -138.116437693   0   0   0 # c2
    203     11   3  0.100000   132.431674635     7.550058460  -138.212713708   0   0   0 # h
    204     11   3  0.100000   130.975182505     8.014579348  -138.823126571   0   0   0 # h
    205     11   2 -0.200000   132.521606003     9.646994177  -138.748883170   0   0   0 # c2
    206     11   3  0.100000   132.180081877    10.670827754  -138.362495752   0   0   0 # h
    207     11   3  0.100000   133.570189037     9.530890317  -138.367872604   0   0   0 # h
    208     11   4  0.380000   132.354199795     9.757899857  -140.283274915   0   0   0 # c'
    209     11   5 -0.380000   131.320447794    10.177263641  -140.860419615   0   0   0 # o'
    210     11   7 -0.500000   133.242436301     9.032816602  -140.962874901   0   0   0 # n
    211     12   1  0.280000   134.283304123     8.206248764  -133.137240637   0   0   0 # hn
    212     12   2  0.020000   139.512228147     4.447574027  -132.954048793   0   0   0 # c2
    213     12   3  0.100000   139.990802841     4.901904190  -132.084236842   0   0   0 # h
    214     12   3  0.100000   139.251139614     3.380531027  -132.943051915   0   0   0 # h
    215     12   2 -0.200000   138.243801859     5.134028365  -133.410609115   0   0   0 # c2
    216     12   3  0.100000   138.498323397     6.208845843  -133.718678321   0   0   0 # h
    217     12   3  0.100000   137.714616328     4.702109521  -134.354646554   0   0   0 # h
    218     12   2 -0.200000   137.105725214     5.164142154  -132.381589625   0   0   0 # c2
    219     12   3  0.100000   137.302994144     5.635965261  -131.385209885   0   0   0 # h
    220     12   3  0.100000   136.934214058     4.013385649  -132.053245371   0   0   0 # h
    221     12   2 -0.200000   135.842673166     5.866260363  -132.961174022   0   0   0 # c2
    222     12   3  0.100000   136.005965811     6.911734610  -133.395028689   0   0   0 # h
    223     12   3  0.100000   135.403530653     5.252882824  -133.743932965   0   0   0 # h
    224     12   2 -0.200000   134.742997823     6.191195251  -131.948472408   0   0   0 # c2
    225     12   3  0.100000   134.515494690     5.285630818  -131.264531772   0   0   0 # h
    226     12   3  0.100000   134.948488285     7.088765797  -131.325331915   0   0   0 # h
    227     12   4  0.380000   133.415453375     6.423903187  -132.686419900   0   0   0 # c'
    228     12   5 -0.380000   132.447204411     5.700997030  -132.667655012   0   0   0 # o'
    229     12   7 -0.500000   133.460783557     7.610203558  -133.308992833   0   0   0 # n
    230     13   1  0.280000   140.231207390     5.749702383  -134.731650937   0   0   0 # hn
    231     13   2  0.020000   145.470450931     8.052909883  -137.675097594   0   0   0 # c2
    232     13   3  0.100000   144.551762883     8.699858876  -137.476881557   0   0   0 # h
    233     13   3  0.100000   146.283434530     8.676613918  -137.307785017   0   0   0 # h
    234     13   2 -0.200000   145.377920519     6.799753016  -136.866579140   0   0   0 # c2
    235     13   3  0.100000   146.151379635     6.006796017  -136.994031265   0   0   0 # h
    236     13   3  0.100000   145.498981363     7.064169066  -135.733282201   0   0   0 # h
    237     13   2 -0.200000   143.961961061     6.095034861  -137.056271654   0   0   0 # c2
    238     13   3  0.100000   143.963099820     5.130346437  -137.677879764   0   0   0 # h
    239     13   3  0.100000   143.195321952     6.809620760  -137.421841014   0   0   0 # h
    240     13   2 -0.200000   143.520567698     5.628661779  -135.641882838   0   0   0 # c2
    241     13   3  0.100000   144.273261778     4.968804315  -135.203328958   0   0   0 # h
    242     13   3  0.100000   143.325488107     6.507312603  -134.940647183   0   0   0 # h
    243     13   2 -0.200000   142.227471937     4.860362249  -135.724519270   0   0   0 # c2
    244     13   3  0.100000   141.487741989     5.549369813  -136.212038129   0   0   0 # h
    245     13   3  0.100000   142.349304680     3.978683891  -136.265124206   0   0   0 # h
    246     13   4  0.380000   141.584476779     4.335023024  -134.402964099   0   0   0 # c'
    247     13   5 -0.380000   142.166226246     3.426393752  -133.711885859   0   0   0 # o'
    248     13   7 -0.500000   140.326518639     4.841297991  -134.229443399   0   0   0 # n
    249     14   1  0.280000   146.222159273     6.995347741  -139.483981042   0   0   0 # hn
    250     14   2  0.020000   141.650252709     6.230958977  -145.057377705   0   0   0 # c2
    251     14   3  0.100000   140.741615210     6.344873433  -144.367489680   0   0   0 # h
    252     14   3  0.100000   141.789644608     7.178306166  -145.682255196   0   0   0 # h
    253     14   2 -0.200000   142.920577963     5.958611924  -144.099980288   0   0   0 # c2
    254     14   3  0.100000   142.821490298     4.944723628  -143.599759899   0   0   0 # h
    255     14   3  0.100000   143.731021399     5.858662742  -144.841649034   0   0   0 # h
    256     14   2 -0.200000   143.250809472     7.126282540  -143.106486362   0   0   0 # c2
    257     14   3  0.100000   142.348916017     7.364180567  -142.445104449   0   0   0 # h
    258     14   3  0.100000   143.377125054     8.101797975  -143.779258012   0   0   0 # h
    259     14   2 -0.200000   144.527773011     6.869918065  -142.325947987   0   0   0 # c2
    260     14   3  0.100000   144.453427825     5.918156315  -141.785952858   0   0   0 # h
    261     14   3  0.100000   145.326541278     6.528850779  -143.099024657   0   0   0 # h
    262     14   2 -0.200000   145.174706080     8.070198133  -141.577910401   0   0   0 # c2
    263     14   3  0.100000   146.281970326     8.199701769  -141.659932745   0   0   0 # h
    264     14   3  0.100000   144.731066137     8.989615806  -142.120330582   0   0   0 # h
    265     14   4  0.380000   144.831349063     8.216708528  -140.082387335   0   0   0 # c'
    266     14   5 -0.380000   143.721307723     8.853937682  -139.827515093   0   0   0 # o'
    267     14   7 -0.500000   145.687223233     7.792653147  -139.160971584   0   0   0 # n
    268     15   1  0.280000   142.143537113     4.162267283  -145.530937286   0   0   0 # hn
    269     15   2  0.020000   146.181132021     4.362992791  -149.941883256   0   0   0 # c2
    270     15   3  0.100000   146.067538775     5.400876194  -149.563171167   0   0   0 # h
    271     15   3  0.100000   146.666915471     3.680785622  -149.234659651   0   0   0 # h
    272     15   2 -0.200000   144.802179757     3.930559089  -150.085327740   0   0   0 # c2
    273     15   3  0.100000   144.263306485     4.465163083  -150.910572108   0   0   0 # h
    274     15   3  0.100000   144.648636432     2.819314534  -150.408364762   0   0   0 # h
    275     15   2 -0.200000   143.895259702     4.143943998  -148.754882364   0   0   0 # c2
    276     15   3  0.100000   143.953791743     5.182854394  -148.422422363   0   0   0 # h
    277     15   3  0.100000   144.369644146     3.406437794  -148.072178515   0   0   0 # h
    278     15   2 -0.200000   142.466005374     3.763520244  -149.033246303   0   0   0 # c2
    279     15   3  0.100000   141.928894533     4.493771876  -149.706442787   0   0   0 # h
    280     15   3  0.100000   142.525094729     2.794001796  -149.647059304   0   0   0 # h
    281     15   2 -0.200000   141.703950844     3.597893846  -147.719971484   0   0   0 # c2